Number;IUPAC_name;Charge;Molecular Formula;Molecular Weight [g/mol];Isomeric SMILES;Pubchem CID;GasPhaseAcidity_B2PLYP//DLPNO-CCSD(T) [kcal/mol];GSolv_Ion_Water [kcal/mol];GSolv_Ion_DMSO [kcal/mol];GSolv_Ion_Acetonitrile [kcal/mol];GSolv_Ion_MeOH [kcal/mol];Gsolv_Neutral_Water_exp [kcal/mol];Gsolv_Neutral_DMSO_TZVPD-Fine [kcal/mol];Gsolv_Neutral_Acetonitrile_TZVPD-Fine [kcal/mol];Gsolv_Neutral_MeOH_TZVPD-Fine [kcal/mol];pka_water;pka_DMSO;pka_Acetonitrile;pka_MeOH
200;3-methylphenol;-1;C7H8O;108.14;CC1=CC(=CC=C1)O;342;344.2;;;;-73.1;;-11.1;-9.5;-9.7;;;;14.5
201;methanesulfonamide;-1;CH5NO2S;95.12;CS(=O)(=O)N;72879;340.3;;-67.9;;;;-12.5;-10.5;-10.3;;17.5;;
202;methanesulfonic acid;-1;CH4O3S;96.11;CS(=O)(=O)O;6395;313.2;;;-52.5;;;-16.3;-14;-13.6;;;10;
203;butane-1-thiol;-1;C4H10S;90.19;CCCCS;8012;348.9;;-68.7;;;;-4;-4.7;-4.2;;17;;
204;nitric acid;-1;HNO3;63.013;[N+](=O)(O)[O-];944;319.6;;;-54;;;-10.3;-7.6;-8;;;8.9;
205;nitrous acid;-1;HNO2;47.014;N(=O)O;24529;337.1;;-73.7;;;;-7.9;-5.3;-6;;7.5;;
206;2-methylphenol;-1;C7H8O;108.14;CC1=CC=CC=C1O;335;342.6;;;;-70.5;;-10.7;-9.2;-9.4;;;;15
207;4-methylphenol;-1;C7H8O;108.14;CC1=CC=C(C=C1)O;2879;345;;-69.2;;-73.8;;-11;-9.4;-9.7;;18.9;;14.6
208;2-phenylacetic acid;-1;C8H8O2;136.15;C1=CC=C(C=C1)CC(=O)O;999;335.2;;;;-73.1;;-13.4;-11.6;-11.8;;;;9.4
209;ethynylbenzene;-1;C8H6;102.13;C#CC1=CC=CC=C1;10821;364;;-69.8;;;;-6;-6;-5.6;;28.7;;
210;2-phenylpropanedinitrile;-1;C9H6N2;142.16;C1=CC=C(C=C1)C(C#N)C#N;18234;313.3;;-58.1;;;;-11.5;-10.7;-10.1;;4.2;;
211;1H-pyrazole;-1;C3H4N2;68.08;C1=CNN=C1;1048;348.8;;-70.6;;;;-9.8;-8.1;-9;;19.8;;
212;pyrrolidine-2,5-dione;-1;C4H5NO2;99.09;C1CC(=O)NC1=O;11439;336.6;;-68.3;;;;-12.6;-11.2;-11.3;;14.6;;
213;2H-tetrazole;-1;CH2N4;70.05;C1=NNN=N1;67519;324.3;;-68.6;;;;-16.5;-13.4;-14.2;;8.2;;
214;2,2,2-trifluoroacetamide;-1;C2H2F3NO;113.04;C(=O)(C(F)(F)F)N;67717;338.2;;-65;;;;-11.3;-8.4;-8.9;;17.2;;
215;2,2,2-trifluoroacetic acid;-1;C2HF3O2;114.02;C(=O)(C(F)(F)F)O;6422;317.5;;-62;-46.8;;;-10.2;-7.6;-8.3;;3.5;12.7;
216;urea;-1;CH4N2O;60.056;C(=O)(N)N;1176;357.2;;-72.7;;;;-13.3;-11.1;-12.7;;27;;
217;3-oxo-3-phenylpropanenitrile;-1;C9H7NO;145.16;C1=CC=C(C=C1)C(=O)CC#N;64799;328.1;;-65.3;;;;-12.2;-11.9;-11;;10.2;;
218;3-methoxybenzoic acid;-1;C8H8O3;152.15;COC1=CC=CC(=C1)C(=O)O;11461;332.9;;;;-71;;-13.4;-11.5;-11.8;;;;9.3