Number;IUPAC-Name;Charge;Molecular Formula;Isomeric SMILES;Water;DMSO;Acetonitrile;Methanol;dG_gas;Water_neutral;DMSO_neutral;Acetonitrile_neutral;Methanol_neutral;Water_neutral_ref;Water_pka;DMSO_pka;Acetonitrile_pka;Methanol_pka;Water_pka_ref;DMSO_pka_ref;Acetonitrile_pka_ref;Methanol_pka_ref;;;;;
1;acetylene;-1;H1C2;C#C;-81.2;;;;371.6;0;-2.3;-2.2;-1.7;53;21.7;;;;50;;;;;;;;
2;methanamine;1;H6C1N1;CN;-73.0;-79.2;-66.6;-73.9;206.9;-4.6;-2.9;-3.0;-4.8;53;10.6;11;18.4;11;48;26;2;34;;;;;
3;propan-1-amine;1;H10C3N1;CCCN;-67.7;;-61.9;;212.0;-4.4;-3.3;-3.7;-5.4;53;10.6;;18.2;;48;;13,14;;;;;;
4;propan-2-amine;1;H10C3N1;CC(C)N;-65.5;;;;213.5;-3.7;-3.4;-3.7;-5.5;46;10.6;;;;48;;;;;;;;
5;2-methylpropan-2-amine;1;H12C4N1;CC(C)(C)N;-63.6;;-58.4;;215.7;-3.9;-3.6;-4.1;-5.8;46;10.7;;18.1;;48;;2;;;;;;
6;cyclohexanamine;1;H14C6N1;C1CCC(CC1)N;-64.3;;;;216.2;-5.1;-4.8;-5.4;-7.2;46;10.7;;;;48;;;;;;;;
7;prop-2-en-1-amine;1;H8C3N1;C=CCN;-68.0;;;;210.1;-4.3;-4.1;-4.3;-5.7;46;9.5;;;;48;;;;;;;;
8;N-methylmethanamine;1;H8C2N1;CNC;-64.9;;;;214.8;-4.3;-2.6;-2.9;-4.5;53;10.7;;;;48;;;;;;;;
9;N-ethylethanamine;1;H12C4N1;CCNCC;-59.7;;-54.3;;220.2;-4.1;-3.0;-3.6;-5.4;53;11;;18.8;;48;;6;;;;;;
10;N-propylpropan-1-amine;1;H16C6N1;CCCNCCC;-57.1;;;;222.4;-3.7;-3.3;-4.2;-5.9;53;11;;;;48;;;;;;;;
11;N-prop-2-enylprop-2-en-1-amine;1;H12C6N1;C=CCNCC=C;-58.6;;;;218.9;-4;-4.7;-5.2;-6.1;46;9.3;;;;48;;;;;;;;
12;N,N-dimethylmethanamine;1;H10C3N1;CN(C)C;-58.0;;-52.5;-58.8;219.5;-3.2;-2.0;-2.6;-3.8;53;9.8;;17.6;9.8;48;;10,16,18;34;;;;;
13;N,N-diethylethanamine;1;H16C6N1;CCN(CC)CC;-51.7;;-47.1;-54.1;226.9;-3;-2.4;-3.3;-5.1;46;10.8;;18.6;10.8;48;;1,2,5;34;;;;;
14;N,N-dipropylpropan-1-amine;1;H22C9N1;CCCN(CCC)CCC;;;;;;-2.5;-2.7;-4.0;-5.9;46;10.3;;18.1;;48;;2,7;;;;;;
15;aniline;1;H8C6N1;C1=CC=C(C=C1)N;-69.5;-78.9;-64.9;-74.2;203.2;-5.5;-8.9;-8.1;-8.0;53;4.6;3.6;10.7;6.1;48;26;1,2,5;34;;;;;
16;2-methylaniline;1;H10C7N1;CC1=CC=CC=C1N;-66.8;;;-71.7;205.7;-5.6;-8.9;-8.3;-8.1;46;4.5;;;6;48;;;34;;;;;
17;3-methylaniline;1;H10C7N1;CC1=CC(=CC=C1)N;-66.6;;;-71.4;206.3;-5.7;-9.0;-8.4;-8.3;46;4.7;;;6.1;48;;;34;;;;;
18;4-methylaniline;1;H10C7N1;CC1=CC=C(C=C1)N;;;;;;-5.6;-8.9;-8.3;-8.2;46;5.1;;11.3;6.6;48;;2;34;;;;;
19;benzene-1,3-diamine;1;H9C6N2;C1=CC(=CC(=C1)N)N;;;;;;-9.9;-12.6;-11.3;-11.5;46;5;;;;48;;;;;;;;
20;N-methylaniline;1;H10C7N1;CNC1=CC=CC=C1;;;;;;-4.7;-8.1;-7.8;-7.5;46;4.9;;;5.5;51;;;34;;;;;
21;N-ethylaniline;1;H12C8N1;CCNC1=CC=CC=C1;-58.1;;;;214.3;-4.6;-8.1;-8.1;-7.8;46;5.1;;;;51;;;;;;;;
22;N,N-dimethylaniline;1;H12C8N1;CN(C)C1=CC=CC=C1;-53.4;;;;218.0;-3.6;-6.8;-7.4;-7.0;46;5.1;;;;48;;;;;;;;
23;N,N,4-trimethylaniline;1;H14C9N1;CC1=CC=C(C=C1)N(C)C;-50.8;;;;221.4;-3.7;-6.8;-7.6;-7.2;46;5.6;;;;48;;;;;;;;
24;N,N-diethylaniline;1;H16C10N1;CCN(CC)C1=CC=CC=C1;-47.9;;;;224.9;-2.9;-7.3;-8.2;-7.7;46;6.6;;;;48;;;;;;;;
25;naphthalen-1-amine;1;H10C10N1;C1=CC=C2C(=C1)C=CC=C2N;-67.4;;;-73.1;206.1;-7.3;-12.0;-11.0;-10.7;46;3.9;;;5.4;48;;;34;;;;;
26;aziridine;1;H6C2N1;C1CN1;;;;;;-4.5;-3.6;-3.8;-4.7;46;8;;;;48;;;;;;;;
27;azetidine;1;H8C3N1;C1CNC1;-64.3;;;;217.5;-5.6;-3.3;-3.6;-5.4;53;11.3;;;;48;;;;;;;;
28;pyrrolidine;1;H10C4N1;C1CCNC1;-62.5;;-57.1;;219.3;-5.5;-3.9;-4.4;-6.2;53;11.3;;19.6;;48;;2;;;;;;
29;piperidine;1;H12C5N1;C1CCNCC1;-59.9;;-54.5;-61.6;221.2;-5.1;-4.0;-4.6;-6.5;53;11.1;;18.9;11.1;48;;2;34;;;;;
30;azepane;1;H14C6N1;C1CCCNCC1;-59.1;;;;221.8;-4.9;-4.5;-5.2;-7.0;46;11.1;;;;48;;;;;;;;
31;1H-pyrrole;1;H6C4N1;C1=CNC=C1;-58.9;;;;201.1;-4.3;-8.3;-7.0;-7.0;46;-3.8;;;;48;;;;;;;;
32;pyridine;1;H6C5N1;C1=CC=NC=C1;-57.5;-63.6;-52.8;-59.9;215.1;-4.7;-5.7;-5.8;-6.6;53;5.2;3.5;12.3;5.4;48;26;1,2;34,35;;;;;
33;quinoline;1;H8C9N1;C1=CC=C2C(=C1)C=CC=N2;-52.9;;;-57.1;220.1;-5.7;-8.2;-8.3;-9.1;46;4.8;;;5.2;48;;;34;;;;;
34;piperazine;1;H11C4N2;C1CNCCN1;-61.8;;;;219.7;-7.4;-6.1;-6.4;-10.0;53;9.7;;;;48;;;;;;;;
35;acetonitrile;1;H4C2N1;CC#N;-71.8;;;;179.3;-3.9;-5.7;-5.6;-5.2;53;-10;;;;48;;;;;;;;
36;acetonitrile;-1;H2C2N1;CC#N;-77.0;-62.8;;;368.1;-3.9;-5.7;-5.6;-5.1;53;25;31.3;;;49;26;;;;;;;
37;cyanamide;-1;H1C1N2;C(#N)N;-74.9;-65.9;;;343.6;-6.2;-13.7;-10.3;-11.2;46;10.3;16.9;;;51;26;;;;;;;
38;aniline;-1;H6C6N1;C1=CC=C(C=C1)N;-68.8;-60.8;;;361.9;-5.5;-8.9;-8.1;-8.0;53;27.7;30.6;;;48;26;;;;;;;
39;N-phenylaniline;-1;H10C12N1;C1=CC=C(C=C1)NC2=CC=CC=C2;;;;;;-5.3;-12.1;-11.3;-11.0;46;22.4;25;;;48;26;;;;;;;
40;formonitrile;-1;C1N1;C#N;-75.2;-67.0;;;345.5;-3.1;-7.3;-4.0;-4.9;46;9.2;12.9;;;7;32;;;;;;;
41;azane;1;H4N1;N;-82.1;-89.7;-75.2;-84.6;195.7;-4.3;-2.9;-3.0;-4.5;53;9.3;10.5;16.5;10.8;7;26;2;34;;;;;
42;hydrazine;1;H5N2;NN;-78.3;;-73.2;;199.9;-6.3;-4.8;-5.2;-7.8;46;8.1;;16.6;;48;;2;;;;;;
43;methanol;1;H5C1O1;CO;-90.0;;-79.8;;173.1;-5.1;-5.5;-4.3;-5.2;53;-2.1;;2.4;;48;;6;;;;;;
44;ethanol;1;H7C2O1;CCO;-84.7;;;;178.6;-5;-5.7;-4.7;-5.7;53;-1.9;;;;48;;;;;;;;
45;methoxymethane;1;H7C2O1;COC;-76.7;;;;182.5;-1.8;-1.8;-2.3;-2.5;53;-2.5;;;;48;;;;;;;;
46;ethoxyethane;1;H11C4O1;CCOCC;-69.0;;-58.4;;190.4;-1.8;-2.4;-3.2;-3.7;53;-2.4;;0.2;;48;;2;;;;;;
47;propan-2-one;1;H7C3O1;CC(=O)C;-74.2;;-63.4;;186.5;-3.9;-4.3;-4.8;-4.6;53;-2.9;;-0.1;;48;;3;;;;;;
48;1-phenylethanone;1;H9C8O1;CC(=O)C1=CC=CC=C1;-61.7;;-55.1;;197.9;-4.6;-7.4;-7.8;-7.6;53;-4.3;;-0.1;;48;;3;;;;;;
49;formic acid;-1;H1C1O2;C(=O)O;-80.1;;;;339.1;-7;-9.4;-7.3;-7.7;46;3.8;;;;48;;;;;;;;
50;acetic acid;-1;H3C2O2;CC(=O)O;-81.9;-66.5;-74.1;-75.9;342.6;-6.7;-9.0;-7.2;-7.6;53;4.8;12.3;22.3;9.7;48;26;10,18,19;22,34;;;;;
51;propanoic acid;-1;H5C3O2;CCC(=O)O;-79.6;;;-74.1;340.6;-6.5;-9.1;-7.4;-7.8;53;4.9;;;9.7;48;;;34,37;;;;;
52;hexanoic acid;-1;H11C6O2;CCCCCC(=O)O;-78.1;;;;339.4;-6.2;-10.1;-8.8;-9.3;53;4.9;;;;48;;;;;;;;
53;prop-2-enoic acid;-1;H3C3O2;C=CC(=O)O;-77.9;;;-72.1;338.0;-6.6;-9.4;-7.4;-7.8;46;4.3;;;9.3;48;;;34;;;;;
54;2-oxopropanoic acid;-1;H3C3O3;CC(=O)C(=O)O;-72.0;;;;326.9;-9.4;-8.8;-7.2;-6.9;46;2.5;;;;48;;;;;;;;
55;benzoic acid;-1;H5C7O2;C1=CC=C(C=C1)C(=O)O;-75.0;-62.6;-70.2;-70.3;333.6;-7.9;-12.2;-10.2;-10.6;46;4.2;11;20.7;9.4;48;26?28;9,11,16;37?39;;;;;
56;methanol;-1;H3C1O1;CO;-101.9;-76.5;;;378.8;-5.1;-5.5;-4.3;-5.2;53;15.5;29;;;48;26;;;;;;;
57;ethanol;-1;H5C2O1;CCO;-96.5;-70.8;;;374.0;-5;-5.7;-4.7;-5.7;53;15.9;29.8;;;48;31;;;;;;;
58;propan-1-ol;-1;H7C3O1;CCCO;-95.0;;;;373.0;-4.8;-5.8;-5.0;-5.9;53;16.1;;;;48;;;;;;;;
59;propan-2-ol;-1;H7C3O1;CC(C)O;-92.3;-67.9;;;371.7;-4.8;-5.8;-5.0;-6.2;53;17.1;30.3;;;48;26;;;;;;;
60;butan-2-ol;-1;H9C4O1;CCC(C)O;-89.2;;;;369.4;-4.7;-5.9;-5.3;-6.3;46;17.6;;;;48;;;;;;;;
61;2-methylpropan-2-ol;-1;H9C4O1;CC(C)(C)O;-87.8;-63.9;;;370.3;-4.5;-5.8;-5.2;-6.3;53;19.2;32.2;;;48;26;;;;;;;
62;prop-2-en-1-ol;-1;H5C3O1;C=CCO;-93.0;;;;369.9;-5.1;-6.6;-5.5;-6.2;53;15.5;;;;48;;;;;;;;
63;phenylmethanol;-1;H7C7O1;C1=CC=C(C=C1)CO;-88.9;;;;364.2;-6.6;-9.5;-8.4;-9.0;46;15.4;;;;48;;;;;;;;
64;2-methoxyethanol;-1;H7C3O2;COCCO;-95.9;;;;370.1;-6.8;-6.2;-5.7;-6.3;53;14.8;;;;48;;;;;;;;
65;phenol;-1;H5C6O1;C1=CC=C(C=C1)O;-75.5;-61.5;-70.4;-72.1;343.4;-6.6;-10.9;-9.2;-9.4;53;10;18;27;14.4;48;26;9,25;34,40,45;;;;;
66;2-methylphenol;-1;H7C7O1;CC1=CC=CC=C1O;-73.6;;;;342.6;-5.9;-10.7;-9.2;-9.4;53;10.3;;;;48;;;;;;;;
67;3-methylphenol;-1;H7C7O1;CC1=CC(=CC=C1)O;-74.3;;;;343.4;-5.5;-11.1;-9.5;-9.7;53;10.1;;;;48;;;;;;;;
68;4-methylphenol;-1;H7C7O1;CC1=CC=C(C=C1)O;-76.2;;;;345.0;-6.1;-11.0;-9.5;-9.7;53;10.3;;;;48;;;;;;;;
69;ethane-1,2-diol;-1;H5C2O2;C(CO)O;-98.5;;;;371.1;-9.3;-10.0;-8.0;-9.3;53;15.4;;;;48;;;;;;;;
70;2-methoxyphenol;-1;H7C7O2;COC1=CC=CC=C1O;;;;-70.9;343.7;;-8.9;-8.6;-8.0;;;;;14.5;;;;34;;;;;
71;benzene-1,3-diol;-1;H5C6O2;C1=CC(=CC(=C1)O)O;-78.7;;;;340.9;-11.4;-17.6;-13.9;-14.6;46;9.3;;;;51;;;;;;;;
72;benzene-1,4-diol;-1;H5C6O2;C1=CC(=CC=C1O)O;-82.4;;;;344.9;-11.9;-17.3;-13.7;-14.4;46;9.9;;;;51;;;;;;;;
73;hydroperoxymethane;-1;H3C1O2;COO;-98.0;;;;369.2;-5.3;-7.3;-5.7;-5.9;54;11.5;;;;48;;;;;;;;
74;hydroperoxyethane;-1;H5C2O2;CCOO;-96.8;;;;368.4;-5.3;-7.4;-6.0;-6.2;54;11.8;;;;48;;;;;;;;
75;acetaldehyde;-1;H3C2O1;CC=O;-82.3;;;;362.2;-3.5;-3.9;-4.2;-3.9;46;16.5;;;;48;;;;;;;;
76;propan-2-one;-1;H5C3O1;CC(=O)C;-82.5;-65.3;;;365.4;-3.9;-4.3;-4.8;-4.6;53;19;26.5;;;48;26;;;;;;;
77;pentan-3-one;-1;H9C5O1;CCC(=O)CC;-78.2;-62.1;;;362.9;-3.3;-4.4;-5.2;-5.1;46;19.9;27.1;;;48;29;;;;;;;
78;oxidane;1;H3O1;O;-107.2;;;;157.6;-6.3;-7.2;-4.9;-6.4;53;-1.7;;;;48;;;;;;;;
79;oxidane;-1;H1O1;O;-118.8;-91.2;;;394.8;-6.3;-7.2;-4.9;-6.4;53;15.7;31.2;;;48;26;;;;;;;
80;hydrogen peroxide;-1;H1O2;OO;-106.0;;;;374.2;-8.6;-11.2;-7.9;-8.7;54;11.7;;;;48;;;;;;;;
81;Hydroperoxylradical;-1;O2;OO;-101.8;;;;362.1;-7;-9.5;-6.9;-7.4;47;4.7;;;;48;;;;;;;;
82;4-methoxyaniline;1;H10C7N1O1;COC1=CC=C(C=C1)N;-67.3;;;-71.6;208.3;-7.6;-10.1;-9.6;-9.5;46;5.3;;;6.9;48;;;34;;;;;
83;4-nitroaniline;1;H7C6N2O2;C1=CC(=CC=C1N)[N+](=O)[O-];-80.2;;;-86.2;191.9;-9.9;-17.9;-14.9;-14.8;46;1;;;1.6;48;;;34;;;;;
84;morpholine;1;H10C4N1O1;C1COCCN1;-65.0;;-59.6;;214.5;-7.2;-5.7;-6.1;-7.9;53;8.4;;16.6;;48;;2;;;;;;
85;acetamide;1;H6C2N1O1;CC(=O)N;-73.6;;;;196.1;-9.7;-10.3;-8.8;-10.1;53;-0.6;;;;48;;;;;;;;
86;benzamide;1;H8C7N1O1;C1=CC=C(C=C1)C(=O)N;-66.8;;-59.3;;203.0;-10.9;-13.7;-11.8;-12.6;46;-1.4;;3.8;;48;;3;;;;;;
87;2-nitrophenol;-1;H4C6N1O3;C1=CC=C(C(=C1)[N+](=O)[O-])O;-66.1;;;;332.2;-4.5;-8.7;-8.5;-7.8;46;7.2;;;;48;;;;;;;;
88;3-nitrophenol;-1;H4C6N1O3;C1=CC(=CC(=C1)O)[N+](=O)[O-];-66.1;;-64.3;-64.3;328.8;-9.6;-15.8;-13.4;-13.3;46;8.4;;23.9;12.3;48;;17;34,40,41;;;;;
89;4-nitrophenol;-1;H4C6N1O3;C1=CC(=CC=C1[N+](=O)[O-])O;-62.2;-55.8;-62.8;-59.8;322.1;-10.6;-16.7;-14.2;-14.2;46;7.1;10.8;20.7;11.3;48;26;12,16;34,37;;;;;
90;nitromethane;-1;H2C1N1O2;C[N+](=O)[O-];-83.6;-68.6;;;354.3;-4;-5.9;-6.0;-5.1;46;10.2;17.2;;;48;26;;;;;;;
91;4-nitroaniline;-1;H5C6N2O2;C1=CC(=CC=C1N)[N+](=O)[O-];-62.7;-59.6;;;338.5;-9.9;-17.8;-14.9;-14.8;46;18.2;20.9;;;48;30;;;;;;;
92;acetamide;-1;H4C2N1O1;CC(=O)N;-86.8;-65.8;;;358.6;-9.7;-10.3;-8.8;-10.1;53;15.1;25.5;;;48;26;;;;;;;
93;methylsulfanylmethane;1;H7C2S1;CSC;-61.7;;;;191.1;-1.5;-3.3;-3.9;-3.3;53;-7;;;;48;;;;;;;;
94;methanethiol;-1;H3C1S1;CS;-78.8;;;;352.5;-1.2;-3.2;-3.5;-2.9;53;10.3;;;;48;;;;;;;;
95;ethanethiol;-1;H5C2S1;CCS;-75.8;;;;349.8;-1.3;-3.4;-3.8;-3.3;53;10.6;;;;48;;;;;;;;
96;propane-1-thiol;-1;H7C3S1;CCCS;-74.9;;;;349.2;-1.1;-3.5;-4.1;-3.6;53;10.7;;;;48;;;;;;;;
97;benzenethiol;-1;H5C6S1;C1=CC=C(C=C1)S;-66.4;-58.5;;;333.7;-2.6;-7.1;-7.1;-6.5;53;6.6;10.3;;;48;26;;;;;;;
98;sulfane;-1;H1S1;S;-77.4;;;;347.1;-0.7;-3.1;-3.1;-2.5;53;7;;;;48;;;;;;;;
99;methylsulfinylmethane;1;H7C2O1S1;CS(=O)C;-62.8;;-55.6;;205.7;-9.8;-7.4;-8.1;-8.5;46;-1.5;;5.8;;48;;5;;;;;;
100;methylsulfinylmethane;-1;H5C2O1S1;CS(=O)C;-74.4;-61.8;;;370.5;-9.8;-7.4;-8.1;-8.5;46;33;35;;;48;26;;;;;;;
101;fluorane;-1;F1;F;;;;;374.8;;-8.3;-5.7;-6.4;;;;;;;;;;;;;;
102;chlorane;-1;CL1;Cl;;;;;329.3;;-5.0;-3.4;-3.6;;;;;;;;;;;;;;
103;bromane;-1;BR1;Br;;;;;319.3;;-4.2;-3.2;-3.2;;;;;;;;;;;;;;
104;chloroform;-1;C1CL3;C(Cl)(Cl)Cl;-59.0;;;;351.5;-1.1;-4.4;-4.5;-4.0;53;24;;;;48;;;;;;;;
105;2,2,2-trifluoroacetic acid;-1;C2O2F3;C(=O)(C(F)(F)F)O;-61.4;-52.8;-60.6;;315.6;-7.3;-10.2;-7.6;-8.3;46;0.5;3.5;12.7;;48;26;10;;;;;;
106;2-chloroacetic acid;-1;H2C2O2CL1;C(C(=O)O)Cl;-72.5;;-69.1;-66.6;328.6;-8.7;-12.0;-9.9;-9.9;46;2.9;;17.6;7.9;48;;2;34,39;;;;;
107;2,2-dichloroacetic acid;-1;H1C2O2CL2;C(C(=O)O)(Cl)Cl;-64.5;-56.8;-66.1;-61.7;320.6;-6.6;-13.1;-10.6;-10.7;46;1.4;6.4;14.5;6.3;48;26;10,16;18,34,43;;;;;
108;2,2,2-trifluoroethanol;-1;H2C2O1F3;C(C(F)(F)F)O;-81.7;-62.4;;;355.1;-4.3;-7.6;-6.0;-6.2;53;12.4;23.5;;;48;26;;;;;;;
109;1,1,1,3,3,3-hexafluoropropan-2-ol;-1;H1C3O1F6;C(C(F)(F)F)(C(F)(F)F)O;-68.3;;;;338.0;-3.8;-8.5;-6.6;-6.9;53;9.3;;;;48;;;;;;;;
110;2-chlorophenol;-1;H4C6O1CL1;C1=CC=C(C(=C1)O)Cl;-69.8;;;-66.9;337.7;-4.5;-9.8;-7.9;-8.0;46;8.5;;;13;48;;;34;;;;;
111;4-chlorophenol;-1;H4C6O1CL1;C1=CC(=CC=C1O)Cl;-69.0;;;;336.5;-6.2;-12.5;-10.5;-10.7;46;9.4;;;;48;;;;;;;;
112;3-chloroaniline;1;H7C6N1CL1;C1=CC(=CC(=C1)Cl)N;-71.7;;;-76.7;199.7;-5.8;-10.8;-9.5;-9.2;46;3.5;;;4.5;48;;;34;;;;;
113;4-chloroaniline;1;H7C6N1CL1;C1=CC(=CC=C1N)Cl;-72.9;;;-77.8;199.3;-5.9;-10.7;-9.5;-9.2;46;4;;;5;48;;;34;;;;;
114;1-methylpiperidine;1;H14C6N1;CN1CCCCC1;;;;-49.5;230.9;;-3.4;-4.2;-5.8;;;;;9.9;;;;34;;;;;
115;2,4-dimethylpyridine;1;H10C7N1;CC1=CC(=NC=C1)C;;;-47.6;;223.5;;-6.0;-6.6;-7.6;;;;14.1;;;;1;;;;;;
116;2,6-dimethylpyridine;1;H10C7N1;CC1=NC(=CC=C1)C;;;;-54.7;223.1;;-5.6;-6.1;-7.3;;;;;6.9;;;;34,35;;;;;
117;2-methylpyridine;1;H8C6N1;CC1=CC=CC=N1;;;;-56.8;219.7;;-5.8;-6.0;-7.0;;;;;6.2;;;;34,35;;;;;
118;3-bromoaniline;1;H7C6N1BR1;C1=CC(=CC(=C1)Br)N;;;;-77.0;200.0;;-11.5;-10.2;-9.9;;;;;4.4;;;;34;;;;;
119;3-methoxyaniline;1;H10C7N1O1;COC1=CC=CC(=C1)N;;;;-73.7;205.3;;-10.8;-10.0;-9.7;;;;;6;;;;34;;;;;
120;3-methylpyridine;1;H8C6N1;CC1=CN=CC=C1;;;;-57.9;218.1;;-6.0;-6.3;-7.1;;;;;5.8;;;;34,35;;;;;
121;pyridine-4-carbonitrile;1;H5C6N2;C1=CN=CC=C1C#N;;;;-72.5;203.1;;-8.3;-7.9;-8.2;;;;;4.6;;;;36;;;;;
122;4-ethylpyridine;1;H10C7N1;CCC1=CC=NC=C1;;;;-56.7;220.3;;-6.2;-6.8;-7.6;;;;;6.1;;;;34,36;;;;;
123;4-methylbenzoic acid;1;H9C8O2;CC1=CC=C(C=C1)C(=O)O;;;-66.5;;190.0;;-12.4;-10.6;-11.1;;;;0.4;;;;;34,37,38;;;;;
124;4-methylpyridine;1;H8C6N1;CC1=CC=NC=C1;;;;-57.5;219.1;;-6.1;-6.4;-7.3;;;;;6.1;;;;34?36;;;;;
125;4-phenylpyridine;1;H10C11N1;C1=CC=C(C=C1)C2=CC=NC=C2;;;;;;;-9.8;-10.0;-10.7;;;;;5.8;;;;34,36;;;;;
126;acetic acid;1;H5C2O2;CC(=O)O;;;-76.8;;177.2;;-9.0;-7.2;-7.6;;;;1.1;;;;3,4;;;;;;
127;benzoic acid;1;H7C7O2;C1=CC=C(C=C1)C(=O)O;;;-68.5;;187.0;;-12.2;-10.1;-10.6;;;;0;;;;3;;;;;;
128;phenylmethanamine;1;H10C7N1;C1=CC=C(C=C1)CN;;;-62.2;;213.4;;-7.1;-7.3;-8.5;;;;16.8;;;;9?11;;;;;;
129;2-methyl-N-(2-methylpropyl)propan-1-amine;1;H20C8N1;CC(C)CNCC(C)C;;;;;;;-3.7;-4.8;-6.4;;;;17.9;;;;2;;;;;;
130;N-butylbutan-1-amine;1;H20C8N1;CCCCNCCCC;;;-51.6;;223.6;;-3.9;-5.0;-6.6;;;;18.3;;;;2;;;;;;
131;ethanamine;1;H8C2N1;CCN;;;-63.2;-70.6;210.7;;-3.2;-3.5;-5.2;;;;18.4;11;;;2;34;;;;;
132;sulfane;1;H3S1;S;;;-87.9;;161.1;;-3.1;-3.1;-2.5;;;;0.5;;;;3;;;;;;
133;2-methylpropan-1-amine;1;H12C4N1;CC(C)CN;;;-60.3;;213.6;;-3.7;-4.2;-5.8;;;;17.9;;;;2;;;;;;
134;anisole;1;H9C7O1;COC1=CC=CC=C1;;;-69.5;;181.4;;-5.8;-6.2;-5.8;;;;-0.5;;;;3;;;;;;
135;butan-1-ol;1;H11C4O1;CCCCO;;;-72.8;;181.0;;-6.3;-5.5;-6.5;;;;2.2;;;;6;;;;;;
136;butan-1-amine;1;H12C4N1;CCCCN;;;-61.7;-69.8;212.8;;-3.7;-4.1;-5.7;;;;18.3;11.5;;;2;34;;;;;
137;phenol;1;H7C6O1;C1=CC=C(C=C1)O;;;-83.6;;171.5;;-11.0;-9.2;-9.4;;;;0.4;;;;3;;;;;;
138;2-methylpropan-2-ol;1;H11C4O1;CC(C)(C)O;;;-68.0;;187.2;;-5.8;-5.3;-6.4;;;;3.4;;;;6;;;;;;
139;oxolane;1;H9C4O1;C1CCOC1;;;-60.9;;189.9;;-3.3;-4.0;-4.6;;;;1.1;;;;3;;;;;;
140;ethanethioamide;1;H6C2N1S1;CC(=S)N;;;-60.1;;202.4;;-13.1;-10.8;-10.5;;;;4.7;;;26;;;;;;;
141;N,N-dibutylbutan-1-amine;1;H28C12N1;CCCCN(CCCC)CCCC;;;;;;;-3.6;-5.3;-7.1;;;;18.1;;;;2;;;;;;
142;2H-triazole;-1;H2C2N3;C1=NNN=C1;;-63.2;;;339.8;;-10.6;-8.0;-9.0;;;13.9;;;;26;;;;;;;
143;1H-1,2,4-triazole;-1;H2C2N3;C1=NC=NN1;;-59.4;;;332.0;;-15.8;-13.8;-15.8;;;14.8;;;;26;;;;;;;
144;2,4,6-trimethylbenzoic acid;-1;H11C10O2;CC1=CC(=C(C(=C1)C)C(=O)O)C;;;-69.8;;331.8;;-12.9;-11.5;-11.9;;;;20.6;;;;8;;;;;;
145;2,4-dinitrophenol;-1;H3C6N2O5;C1=CC(=C(C=C1[N+](=O)[O-])[N+](=O)[O-])O;;-51.5;-58.7;-54.2;315.2;;-12.5;-11.7;-10.7;;;5.8;16.8;7.8;;14,26;2;34,37,38;;;;;
146;2-chlorobenzoic acid;-1;H4C7O2CL1;C1=CC=C(C(=C1)C(=O)O)Cl;;-62.7;-70.3;-68.8;329.8;;-13.9;-11.8;-12.1;;;9.3;19;8.8;;14;8;34;;;;;
147;2-fluorobenzoic acid;-1;H4C7O2F1;C1=CC=C(C(=C1)C(=O)O)F;;;;-70.2;331.9;;-12.6;-10.5;-10.8;;;;;8.4;;;;34;;;;;
148;2-fluorophenol;-1;H4C6O1F1;C1=CC=C(C(=C1)O)F;;;;-69.7;340.4;;-9.6;-7.9;-8.0;;;;;12.9;;;;34;;;;;
149;2-hydroxybenzoic acid;-1;H5C7O3;C1=CC=C(C(=C1)C(=O)O)O;;;-62.3;-58.8;318.1;;-14.7;-12.2;-12.6;;;;16.7;8;;;12;39;;;;;
150;1,3-dihydroinden-2-one;-1;H7C9O1;C1C(=O)CC2=CC=CC=C21;;-59.7;;;342.8;;-8.4;-8.8;-8.3;;;17;;;;26;;;;;;;
151;2-methoxyacetamide;-1;H6C3N1O2;COCC(=O)N;;-67.5;;;358.3;;-10.0;-9.0;-9.8;;;23.9;;;;26;;;;;;;
152;naphthalen-2-ol;-1;H7C10O1;C1=CC=C2C=C(C=CC2=C1)O;;-59.2;;;336.9;;-13.9;-12.0;-12.3;;;17.1;;;;26;;;;;;;
153;2-nitrobenzoic acid;-1;H4C7N1O4;C1=CC=C(C(=C1)C(=O)O)[N+](=O)[O-];;-61.6;-68.3;-66.7;324.0;;-17.0;-14.5;-14.3;;;8.2;18.2;7.7;;14;2;39;;;;;
154;2-nitropropane;-1;H6C3N1O2;CC(C)[N+](=O)[O-];;-65.9;;;351.8;;-5.4;-5.8;-5.0;;;16.9;;;;26;;;;;;;
155;2-tert-butylphenol;-1;H13C10O1;CC(C)(C)C1=CC=CC=C1O;;;;-65.6;338.8;;-11.4;-10.1;-10.4;;;;;16.5;;;;34,40;;;;;
156;3,4,5-trichlorophenol;-1;H2C6O1CL3;C1=C(C=C(C(=C1Cl)Cl)Cl)O;;;-60.9;;324.5;;-14.6;-12.4;-12.8;;;;22.5;;;;15;;;;;;
157;3,4-dimethylbenzoic acid;-1;H9C9O2;CC1=C(C=C(C=C1)C(=O)O)C;;-60.3;-68.3;-68.6;331.2;;-13.0;-11.4;-11.8;;;11.4;21.2;9.7;;14;16;16,34;;;;;
158;3-aminobenzoic acid;-1;H6C7N1O2;C1=CC(=CC(=C1)N)C(=O)O;;-68.7;;;334.8;;-17.1;-13.8;-14.3;;;11;;;;14,27,28;;;;;;;
159;pyridin-3-amine;-1;H5C5N2;C1=CC(=CN=C1)N;;-60.7;;;356.8;;-11.1;-9.8;-10.9;;;28.5;;;;26;;;;;;;
160;3-chlorobenzoic acid;-1;H4C7O2CL1;C1=CC(=CC(=C1)Cl)C(=O)O;;;;;;;-13.3;-11.1;-11.5;;;;;8.7;;;;37;;;;;
161;3-chlorophenol;-1;H4C6O1CL1;C1=CC(=CC(=C1)Cl)O;;;-66.2;-66.9;335.2;;-12.4;-10.4;-10.7;;;;25;13.1;;;15;34;;;;;
162;3-cyanobenzoic acid;-1;H4C8N1O2;C1=CC(=CC(=C1)C(=O)O)C#N;;;;-64.8;323.8;;-16.0;-13.3;-13.7;;;;;8.5;;;;34;;;;;
163;3-hydroxybenzoic acid;-1;H5C7O3;C1=CC(=CC(=C1)O)C(=O)O;;-67.0;;-73.0;331.6;;-18.8;-14.6;-15.6;;;11.1;;9.6;;28;;34;;;;;
164;3-methylbenzoic acid;-1;H7C8O2;CC1=CC(=CC=C1)C(=O)O;;-64.8;;-72.8;335.7;;-12.3;-10.5;-11.0;;;11;;9.4;;14,28;;34,37,38;;;;;
165;3-nitrobenzoic acid;-1;H4C7N1O4;C1=CC(=CC(=C1)[N+](=O)[O-])C(=O)O;;;-65.3;-64.7;323.4;;-16.1;-13.5;-13.7;;;;19.3;8.3;;;13,14;34,37,39;;;;;
166;3-(trifluoromethyl)benzoic acid;-1;H4C8O2F3;C1=CC(=CC(=C1)C(F)(F)F)C(=O)O;;;;-64.8;326.7;;-12.6;-10.6;-11.1;;;;;8.7;;;;34;;;;;
167;3-(trifluoromethyl)phenol;-1;H4C7O1F3;C1=CC(=CC(=C1)O)C(F)(F)F;;;-63.5;;333.1;;-11.6;-9.7;-10.1;;;;24.9;;;;15;;;;;;
168;4-aminobenzoic acid;-1;H6C7N1O2;C1=CC(=CC=C1C(=O)O)N;;;;-77.5;337.2;;-18.6;-14.9;-15.5;;;;;10.3;;;;34;;;;;
169;pyridin-4-amine;-1;H5C5N2;C1=CN=CC=C1N;;-59.8;;;352.0;;-12.3;-10.6;-12.1;;;26.5;;;;26;;;;;;;
170;4-chlorobenzoic acid;-1;H4C7O2CL1;C1=CC(=CC=C1C(=O)O)Cl;;;;;;;-13.0;-10.9;-11.4;;;10.1;;9;;28;;34,37;;;;;
171;4-hydroxybenzonitrile;-1;H4C7N1O1;C1=CC(=CC=C1C#N)O;;;-62.3;;325.4;;-15.8;-13.3;-13.6;;;;22.8;;;;15;;;;;;
172;4-fluorobenzoic acid;-1;H4C7O2F1;C1=CC(=CC=C1C(=O)O)F;;;;-67.5;330.7;;-12.1;-10.0;-10.5;;;;;9.2;;;;34;;;;;
173;4-hydroxybenzaldehyde;-1;H5C7O2;C1=CC(=CC=C1C=O)O;;;;-62.9;326.9;;-15.1;-13.0;-13.5;;;;;12;;;;40;;;;;
174;4-hydroxybenzoic acid;-1;H5C7O3;C1=CC(=CC=C1C(=O)O)O;;;-70.3;-70.3;328.6;;-19.5;-15.4;-16.4;;;;20.8;10;;;12;34;;;;;
175;4-methoxybenzoic acid;-1;H7C8O3;COC1=CC=C(C=C1)C(=O)O;;;;-72.9;335.0;;-14.0;-12.1;-12.4;;;;;9.8;;;;34;;;;;
176;4-methylbenzoic acid;-1;H7C8O2;CC1=CC=C(C=C1)C(=O)O;;;;-71.8;334.8;;-12.4;-10.6;-11.1;;;;;9.5;;;3;;;;;;
177;4-nitrobenzoic acid;-1;H4C7N1O4;C1=CC(=CC=C1C(=O)O)[N+](=O)[O-];;-57.9;-65.0;-63.6;322.4;;-16.0;-13.4;-13.6;;;9;18.7;8.3;;14,26?28;12,16;16,34b;;;;;
178;4-tert-butylbenzoic acid;-1;H13C11O2;CC(C)(C)C1=CC=C(C=C1)C(=O)O;;;;;;;-13.2;-11.8;-12.3;;;;;9.6;;;;34;;;;;
179;4-tert-butylphenol;-1;H13C10O1;CC(C)(C)C1=CC=C(C=C1)O;;;;-72.7;342.8;;-11.8;-10.6;-10.9;;;;;14.6;;;;34,40;;;;;
180;7H-purin-6-amine;-1;H4C5N5;C1=NC2=NC=NC(=C2N1)N;;-61.8;;;329.9;;-19.5;-15.3;-18.3;;;14.2;;;;26;;;;;;;
181;benzamide;-1;H6C7N1O1;C1=CC=C(C=C1)C(=O)N;;-61.5;;;348.1;;-13.6;-11.7;-12.6;;;23.4;;;;26;;;;;;;
182;2-phenylacetamide;-1;H8C8N1O1;C1=CC=C(C=C1)CC(=O)N;;-63.2;;;352.2;;-12.9;-11.6;-12.3;;;24.7;;;;26;;;;;;;
183;benzenesulfonamide;-1;H6C6N1O2S1;C1=CC=C(C=C1)S(=O)(=O)N;;;;;;;-16.8;-13.9;-14.3;;;16.1;24.6;;;26;20;;;;;;
184;1-phenylpropan-2-one;-1;H9C9O1;CC(=O)CC1=CC=CC=C1;;-62.1;;;349.5;;-8.0;-8.7;-8.2;;;19.9;;;;26;;;;;;;
185;2-bromoacetic acid;-1;H2C2O2BR1;C(C(=O)O)Br;;;;-65.5;327.7;;-12.0;-9.9;-9.9;;;;;8.1;;;;34;;;;;
186;butanoic acid;-1;H7C4O2;CCCC(=O)O;;;-70.2;-72.6;338.8;;-9.3;-7.7;-8.1;;;;22.7;9.7;;;16;34,37;;;;;
187;9H-carbazole;-1;H8C12N1;C1=CC=C2C(=C1)C3=CC=CC=C3N2;;-57.0;;;338.6;;-13.7;-12.2;-12.2;;;19.9;;;;26;;;;;;;
188;2-cyanoacetic acid;-1;H2C3N1O2;C(C#N)C(=O)O;;;-65.4;-63.8;322.6;;-15.0;-12.7;-12.5;;;;18;7.5;;;21;34,42,43;;;;;