Number;IUPAC-Name;Charge;Molecular Formula;Isomeric SMILES;Water;DMSO;Acetonitrile;Methanol;dG_gas;Water_neutral;DMSO_neutral;Acetonitrile_neutral;Methanol_neutral;Water_neutral_ref;Water_pka;DMSO_pka;Acetonitrile_pka;Methanol_pka;Water_pka_ref;DMSO_pka_ref;Acetonitrile_pka_ref;Methanol_pka_ref;;;;;
189;cyclobutanecarboxylic acid;-1;H7C5O2;C1CC(C1)C(=O)O;;;;-72.2;338.2;;-9.6;-8.1;-8.6;;;;;9.9;;;;34;;;;;
190;cyclohexanecarboxylic acid;-1;H11C7O2;C1CCC(CC1)C(=O)O;;;-69.9;-72.9;338.0;;-10.3;-9.0;-9.6;;;;23.3;10;;;22;34,44;;;;;
191;cyclopenta-1,3-diene;-1;H5C5;C1C=CC=C1;;-59.4;;;348.8;;-3.4;-3.8;-3.4;;;18;;;;26;;;;;;;
192;cyclopropanecarboxylic acid;-1;H5C4O2;C1CC1C(=O)O;;;;-72.4;338.4;;-9.7;-8.0;-8.4;;;;;9.8;;;;34;;;;;
193;methylsulfonylmethane;-1;H5C2O2S1;CS(=O)(=O)C;;-60.3;;;361.3;;-9.6;-10.3;-9.3;;;31.1;;;;26;;;;;;;
194;ethanethioamide;-1;H4C2N1S1;CC(=S)N;;-59.5;;;339.9;;-13.1;-10.8;-10.5;;;18.5;;;;;3;;;;;;
195;2-fluoroacetic acid;-1;H2C2O2F1;C(C(=O)O)F;;;;-68.7;331.7;;-11.0;-9.0;-9.0;;;;;8;;;;34;;;;;
196;formamide;-1;H2C1N1O1;C(=O)N;;-66.1;;;355.9;;-10.4;-8.6;-9.7;;;23.5;;;;26;;;;;;;
197;2-hydroxyacetic acid;-1;H3C2O3;C(C(=O)O)O;;;-67.1;-66.4;329.1;;-12.3;-9.7;-10.3;;;;19.3;8.7;;;21;34;;;;;
198;1H-imidazole;-1;H3C3N2;C1=CN=CN1;;-61.7;;;344.0;;-11.3;-9.7;-11.2;;;18.6;;;;26;;;;;;;
199;propanedinitrile;-1;H1C3N2;C(C#N)C#N;;-54.8;;;328.6;;-9.4;-8.7;-8.0;;;11;;;;26;;;;;;;
200;3-methylphenol;-1;H7C7O1;CC1=CC(=CC=C1)O;;;;-73.0;344.2;;-11.1;-9.5;-9.7;;;;;14.5;;;;34,45;;;;;
201;methanesulfonamide;-1;H4C1N1O2S1;CS(=O)(=O)N;;-60.7;;;340.3;;-12.5;-10.5;-10.3;;;17.5;;;;26;;;;;;;
202;methanesulfonic acid;-1;H3C1O3S1;CS(=O)(=O)O;;;-68.2;;313.2;;-16.3;-14.0;-13.6;;;;10;;;;23;;;;;;
203;butane-1-thiol;-1;H9C4S1;CCCCS;;-61.5;;;348.9;;-4.0;-4.7;-4.2;;;17;;;;26;;;;;;;
204;nitric acid;-1;N1O3;[N+](=O)(O)[O-];;;-69.7;;319.6;;-10.3;-7.6;-8.0;;;;8.9;;;;24;;;;;;
205;nitrous acid;-1;N1O2;N(=O)O;;-66.5;;;337.1;;-7.9;-5.3;-6.0;;;7.5;;;;26;;;;;;;
206;2-methylphenol;-1;H7C7O1;CC1=CC=CC=C1O;;;;-70.5;342.6;;-10.7;-9.2;-9.4;;;;;15;;;;34,45;;;;;
207;4-methylphenol;-1;H7C7O1;CC1=CC=C(C=C1)O;;-62.0;;-73.7;345.0;;-11.0;-9.4;-9.7;;;18.9;;14.6;;33;;34,45;;;;;
208;2-phenylacetic acid;-1;H7C8O2;C1=CC=C(C=C1)CC(=O)O;;;;-73.0;335.2;;-13.4;-11.6;-11.8;;;;;9.4;;;;34,37;;;;;
209;ethynylbenzene;-1;H5C8;C#CC1=CC=CC=C1;;-62.6;;;364.0;;-6.0;-6.0;-5.6;;;28.7;;;;26;;;;;;;
210;2-phenylpropanedinitrile;-1;H5C9N2;C1=CC=C(C=C1)C(C#N)C#N;;-50.9;;;313.3;;-11.5;-10.7;-10.1;;;4.2;;;;26;;;;;;;
211;1H-pyrazole;-1;H3C3N2;C1=CNN=C1;;-63.4;;;348.8;;-9.8;-8.1;-9.0;;;19.8;;;;26;;;;;;;
212;pyrrolidine-2,5-dione;-1;H4C4N1O2;C1CC(=O)NC1=O;;-61.1;;;336.6;;-12.6;-11.2;-11.3;;;14.6;;;;26;;;;;;;
213;2H-tetrazole;-1;H1C1N4;C1=NNN=N1;;-61.4;;;324.3;;-16.5;-13.4;-14.2;;;8.2;;;;26;;;;;;;
214;2,2,2-trifluoroacetamide;-1;H1C2N1O1F3;C(=O)(C(F)(F)F)N;;-57.8;;;338.2;;-11.3;-8.4;-8.9;;;17.2;;;;26;;;;;;;
215;2,2,2-trifluoroacetic acid;-1;C2O2F3;C(=O)(C(F)(F)F)O;;-54.7;-62.5;;317.5;;-10.2;-7.6;-8.3;;;3.5;12.7;;;26;10;;;;;;
216;urea;-1;H3C1N2O1;C(=O)(N)N;;-65.4;;;357.2;;-13.3;-11.1;-12.7;;;27;;;;26;;;;;;;
217;3-oxo-3-phenylpropanenitrile;-1;H6C9N1O1;C1=CC=C(C=C1)C(=O)CC#N;;-58.1;;;328.1;;-12.2;-11.9;-11.0;;;10.2;;;;26;;;;;;;
218;3-methoxybenzoic acid;-1;H7C8O3;COC1=CC=CC(=C1)C(=O)O;;;;-70.9;332.9;;-13.4;-11.5;-11.8;;;;;9.3;;;;34;;;;;