Number;IUPAC_name;Charge;Molecular Formula;Molecular Weight [g/mol];Isomeric SMILES;Pubchem CID;GasPhaseAcidity_B2PLYP//DLPNO-CCSD(T) [kcal/mol];GSolv_Ion_Water [kcal/mol];GSolv_Ion_DMSO [kcal/mol];GSolv_Ion_Acetonitrile [kcal/mol];GSolv_Ion_MeOH [kcal/mol];Gsolv_Neutral_Water_exp [kcal/mol];Gsolv_Neutral_DMSO_TZVPD-Fine [kcal/mol];Gsolv_Neutral_Acetonitrile_TZVPD-Fine [kcal/mol];Gsolv_Neutral_MeOH_TZVPD-Fine [kcal/mol];pka_water;pka_DMSO;pka_Acetonitrile;pka_MeOH;Synonyms
65;phenol;-1;C6H6O;94.11;C1=CC=C(C=C1)O;996;343.4;-75.3;-68.8;-54.7;-72.1;-6.6;-10.9;-9.2;-9.4;10;18;27;14.4;"['phenol', 'carbolic acid', '108-95-2', 'Hydroxybenzene', 'Phenic acid', 'Oxybenzene', 'Phenylic acid', 'Benzenol', 'Monophenol', 'Phenyl hydrate', 'Phenylic alcohol', 'Phenyl hydroxide', 'PhOH', 'Monohydroxybenzene', 'Paoscle', 'Phenole', 'Izal', 'Phenol alcohol', 'Phenyl alcohol', 'Phenol, liquefied', 'Acide carbolique', 'Fenolo', 'Carbolsaure', 'Fenosmolin', 'Fenosmoline', 'Phenosmolin', 'Fenol', 'Liquid phenol', 'Carbolic oil', 'Phenol, pure', 'Phenol homopolymer', 'Fenolo [Italian]', 'Phenole [German]', 'Benzene, hydroxy-', 'Rcra waste number U188', 'Campho-Phenique Gel', 'Phenic', 'Carbolsaure [German]', 'Campho-Phenique Liquid', 'NCI-C50124', 'Phenol, molten', ""Baker's P & S liquid & Ointment"", 'Fenol [Dutch, Polish]', ""Baker's P and S Liquid and Ointment"", 'Monohydroxy benzene', 'Un 2812 (solution)', 'UN 2312 (molten)', 'Acide carbolique [French]', 'UN 1671 (solid)', 'NSC 36808', 'Campho-Phenique Cold Sore Gel', 'Anbesol', 'Phenic alcohol', 'Liquefied phenol', 'Synthetic phenol', 'Phenol, dimer', 'RCRA waste no. U188', 'UNII-339NCG44TV', 'MFCD00002143', 'UN1671', 'UN2312', 'UN2821', 'AI3-01814', 'CHEMBL14060', '339NCG44TV', 'DTXSID5021124', 'CHEBI:15882', 'Phenol (or solutions with 5% or more phenol)', 'NSC-36808', 'Hydroxybenzene solution', 'Phenol, solid [UN1671]  [Poison]', 'Phenol, molten [UN2312]  [Poison]', 'NCGC00091454-04', 'Phenol solutions [UN2821]  [Poison]', 'DSSTox_CID_1124', 'Phenol, >=99.0%', 'DSSTox_RID_75955', 'Phenol, sulfurated', 'DSSTox_GSID_21124', '27073-41-2', 'Phenol [JAN]', 'Caswell No. 649', 'phenylalcohol', 'hydroxy benzene', 'Phenol 100 microg/mL in Methanol', 'Phenol, liquid', 'Phenol, solid', ""Baker's p and s"", '17442-59-0', 'CAS-108-95-2', 'CCRIS 504', 'FEMA No. 3223', 'HSDB 113', '(14C)Phenol', 'Phenol [USP:JAN]', 'PHENOL (2,3,4,5,6-D5)', 'EINECS 203-632-7', 'EPA Pesticide Chemical Code 064001', 'Benzophenol', 'Carbolsaeure', 'Karbolsaeure', 'acide phenique', 'Hydroxy-benzene', 'Phenol solution', 'Phenol liquid', 'Phenol molten', 'Phenol solutions', 'Phenol synthetic', 'Phenolated water', ""Pandy's reagent"", 'Liquified Phenol', 'Carbolicum acidum', 'Cepastat lozenges', 'Phenol, labeled with carbon-14', 'Phenol (liquid)', '2-phenyl alcohol', 'Phenol, synthetic', 'Phenol, ultrapure', 'Phenol ACS grade', 'EINECS 262-972-4', 'Liquefied phenol BP', 'Paoscle (TN)', 'Carbolic acid liquid', 'Phenol polymer-bound', 'Phenol (TN)', 'Phenol,(S)', 'Phenol, ACS reagent', 'Carbolic acid, liquid', '1ai7', '1li2', '4i7l', 'Liquefied phenol (TN)', 'Phenol (JP17/USP)', 'Phenol, detached crystals', 'Phenol, >=99%', 'WLN: QR', 'ACMC-1CE2K', 'Liquefied phenol (JP17)', 'bmse000290', 'bmse010026', 'C6H5OH', 'Fenol(DUTCH, POLISH)', 'EC 203-632-7', 'PHENOL, 80% in ethanol', 'Phenol, LR, >=99%', '61788-41-8', 'MLS001065591', 'Phenol, for molecular biology', 'BIDD:ER0293', 'Phenol for disinfection (TN)', 'Phenol, natural, 97%, FG', 'Phenol, 90% aqueous solution', 'Cuticura pain relieving ointment', 'Phenol, AR, >=99.5%', 'BDBM26187', 'Phenol for disinfection (JP17)', 'Phenolated water for disinfection', 'Salicylic acid related compound c', '3f39', 'Phenol 10 microg/mL in Methanol', 'Phenol solution, 1.0 M in THF', 'ENT-1814', 'NSC36808', 'ZINC5133329', 'Tox21_113463', 'Tox21_201639', 'Tox21_300042', 'BBL019774', 'Phenol 5000 microg/mL in Methanol', 'phenol;phenol [jan];phenol, pure;phenol phenol [jan] phenol, pure', 'STL194294', 'AKOS000119025', 'Tox21_113463_1', 'DB03255', 'MCULE-9943948107', 'NA 2821', 'Phenol, BioXtra, >=99.5% (GC)', 'Phenol, SAJ first grade, >=98.0%', 'UN 1671', 'UN 2312', 'UN 2821', 'Phenol, BP grade 80% aqueous solution', 'NCGC00091454-01', 'NCGC00091454-02', 'NCGC00091454-03', 'NCGC00091454-05', 'NCGC00091454-06', 'NCGC00091454-07', 'NCGC00254019-01', 'NCGC00259188-01', 'Phenol solution, 1 M in dichloromethane', 'Phenol, JIS special grade, >=99.0%', '63496-48-0', '73607-76-8', 'AM802906', 'BP-30160', 'SMR000568492', 'Phenol, PESTANAL(R), analytical standard', 'Liquified Phenol (contains 7-10 % water)', '582-EP2269975A2', '582-EP2269977A2', '582-EP2269997A2', '582-EP2270003A1', '582-EP2270101A1', '582-EP2270113A1', '582-EP2272813A2', '582-EP2272817A1', '582-EP2272822A1', '582-EP2272849A1', '582-EP2272935A1', '582-EP2272972A1', '582-EP2272973A1', '582-EP2274983A1', '582-EP2275105A1', '582-EP2275395A2', '582-EP2275403A1', '582-EP2275404A1', '582-EP2275411A2', '582-EP2275415A2', '582-EP2275420A1', '582-EP2277565A2', '582-EP2277566A2', '582-EP2277567A1', '582-EP2277568A2', '582-EP2277569A2', '582-EP2277570A2', '582-EP2277867A2', '582-EP2277872A1', '582-EP2277879A1', '582-EP2277881A1', '582-EP2279750A1', '582-EP2280001A1', '582-EP2280003A2', '582-EP2280004A1', '582-EP2280006A1', '582-EP2280010A2', '582-EP2280012A2', '582-EP2280020A1', '582-EP2280021A1', '582-EP2281817A1', '582-EP2281819A1', '582-EP2284146A2', '582-EP2284147A2', '582-EP2284148A1', '582-EP2284157A1', '582-EP2284160A1', '582-EP2284165A1', '582-EP2284169A1', '582-EP2284178A2', '582-EP2286811A1', '582-EP2286812A1', '582-EP2287158A1', '582-EP2287161A1', '582-EP2287162A1', '582-EP2287165A2', '582-EP2287166A2', '582-EP2287167A1', '582-EP2289509A2', '582-EP2289868A1', '582-EP2289879A1', '582-EP2289883A1', '582-EP2289891A2', '582-EP2289892A1', '582-EP2289896A1', '582-EP2289965A1', '582-EP2292280A1', '582-EP2292597A1', '582-EP2292608A1', '582-EP2292620A2', '582-EP2295399A2', '582-EP2295411A1', '582-EP2295424A1', '582-EP2295426A1', '582-EP2295427A1', '582-EP2295428A2', '582-EP2295429A1', '582-EP2295434A2', '582-EP2295437A1', '582-EP2295438A1', '582-EP2298734A2', '582-EP2298742A1', '582-EP2298744A2', '582-EP2298750A1', '582-EP2298753A1', '582-EP2298758A1', '582-EP2298759A1', '582-EP2298775A1', '582-EP2298776A1', '582-EP2298778A1', '582-EP2301536A1', '582-EP2301538A1', '582-EP2301919A1', '582-EP2301924A1', '582-EP2301926A1', '582-EP2301929A1', '582-EP2301935A1', '582-EP2301937A1', '582-EP2301983A1', '582-EP2302015A1', '582-EP2305033A1', '582-EP2305243A1', '582-EP2305625A1', '582-EP2305627A1', '582-EP2305633A1', '582-EP2305640A2', '582-EP2305648A1', '582-EP2305649A1', '582-EP2305662A1', '582-EP2305664A1', '582-EP2305668A1', '582-EP2305673A1', '582-EP2305674A1', '582-EP2305679A1', '582-EP2305684A1', '582-EP2305685A1', '582-EP2305687A1', '582-EP2305689A1', '582-EP2305695A2', '582-EP2305696A2', '582-EP2305697A2', '582-EP2305698A2', '582-EP2305808A1', '582-EP2308471A1', '582-EP2308510A1', '582-EP2308838A1', '582-EP2308840A1', '582-EP2308848A1', '582-EP2308861A1', '582-EP2308865A1', '582-EP2308872A1', '582-EP2308873A1', '582-EP2308875A1', '582-EP2308877A1', '582-EP2308878A2', '582-EP2308880A1', '582-EP2311455A1', '582-EP2311464A1', '582-EP2311494A1', '582-EP2311808A1', '582-EP2311811A1', '582-EP2311814A1', '582-EP2311822A1', '582-EP2311824A1', '582-EP2311829A1', '582-EP2311831A1', '582-EP2311834A1', '582-EP2314295A1', '582-EP2314571A2', '582-EP2314576A1', '582-EP2314579A1', '582-EP2314588A1', '582-EP2315502A1', '582-EP2316452A1', '582-EP2316470A2', '582-EP2316824A1', '582-EP2316829A1', '582-EP2316831A1', '582-EP2316832A1', '582-EP2316833A1', '582-EP2316836A1', '582-EP2316937A1', '582-EP2316974A1', '582-EP2371806A1', '582-EP2371807A1', '582-EP2371811A2', '582-EP2372017A1', '582-EP2374784A1', '582-EP2374785A1', '582-EP2377842A1', '582-EP2380872A1', 'FT-0645154', 'FT-0673707', 'FT-0693833', 'P1610', 'Phenol stock solution, 100 mg/dL, standard', 'C00146', 'D00033', 'Phenol, unstabilized, ReagentPlus(R), >=99%', '78049-EP2272846A1', '78049-EP2277868A1', '78049-EP2277869A1', '78049-EP2277870A1', '78049-EP2287158A1', '78049-EP2292608A1', '78049-EP2308866A1', '78049-EP2371806A1', '78049-EP2371807A1', '97694-EP2305662A1', 'Phenol, p.a., ACS reagent, 99.5-100.5%', 'Phenol, >=96.0% (calc. on dry substance, T)', 'Q130336', 'J-610001', 'Phenol, for molecular biology, ~90% (T), liquid', 'F1908-0106', 'Phenol, unstabilized, purified by redistillation, >=99%', 'Phenol, BioUltra, for molecular biology, >=99.5% (GC)', 'Phenol, United States Pharmacopeia (USP) Reference Standard', 'UNII-3JYG22FD73 component ISWSIDIOOBJBQZ-UHFFFAOYSA-N', 'Liquified Phenol, meets USP testing specifications, >=89.0%', 'Phenol, BioUltra, for molecular biology, TE-saturated, ~73% (T)', 'Phenol solution, 5000 mug/mL in methanol, certified reference material', 'Phenol solution, certified reference material, 500 mug/mL in methanol', 'Phenol, puriss. p.a., ACS reagent, reag. Ph. Eur., 99.0-100.5%', 'p-Hydroxy polystyrene (100-200 mesh, 0.5-1.5 mmol/g)@CRLFMFCD03703209', 'Phenol solution, 100 mug/mL in acetonitrile, PESTANAL(R), analytical standard', 'Phenol, contains hypophosphorous as stabilizer, loose crystals, ACS reagent, >=99.0%', 'Phenol, puriss., meets analytical specification of Ph. Eur., BP, USP, 99.5-100.5% (GC)', 'Phenol solution, BioReagent, Equilibrated with 10??mM Tris HCl, pH??8.0, 1??mM EDTA, for molecular biology', 'Phenol solution, BioReagent, Saturated with 0.1 M citrate buffer, pH??4.3 +/- 0.2, for molecular biology', 'Phenol, polymer-bound, 100-200 mesh, extent of labeling: 0.5-1.5 mmol/g loading, 1 % cross-linked with divinylbenzene', 'Phenol, puriss., meets analytical specification of Ph. Eur., BP, USP, >=99.5% (GC), crystalline (detached)']"
66;2-methylphenol;-1;C7H8O;108.14;CC1=CC=CC=C1O;335;342.6;-73.5;;;;-5.9;-10.7;-9.2;-9.4;10.3;;;;"['o-cresol', '2-Methylphenol', '95-48-7', 'Orthocresol', '2-hydroxytoluene', 'Phenol, 2-methyl-', '2-Cresol', 'o-methylphenol', 'o-Cresylic acid', 'o-Oxytoluene', 'o-Toluol', 'o-Hydroxytoluene', 'o-Methylphenylol', '1-Hydroxy-2-methylbenzene', 'ortho-cresol', 'o-Kresol', '2-methyl phenol', 'Cresol, ortho-', 'Cresol, o-', 'o-Kresol [German]', '2-Hydroxy-1-methylbenzene', 'Cresylic acid', '2-methyl-phenol', 'Cresol, o-isomer', 'hydroxy toluene', 'Phenol, methyl-', 'UNII-YW84DH5I7U', 'NSC 23076', 'Cresol mixture of isomers', '1-Methyl-2-hydroxybenzene', 'YW84DH5I7U', 'CHEBI:28054', 'MFCD00002226', 'TOLUENE,2-HYDROXY  (ORTHO-CRESOL)', 'o-Cresol [UN2076]  [Poison, Corrosive]', 'DSSTox_CID_1808', 'Cresol mixture of isomers;Methylphenol;Tricresol', 'DSSTox_RID_76341', 'WLN: QR B1', 'DSSTox_GSID_21808', 'CAS-95-48-7', 'Orthocresol [NF]', 'Cresols are organic compounds which are methylphenols. They are a widely occurring natural and manufactured group of aromatic organic compounds, which are categorized as phenols.', 'CCRIS 646', 'FEMA No. 3480', 'HSDB 1813', 'EINECS 202-423-8', 'ortho cresol', 'Methyl phenol', '2-methyiphenol', 'AI3-00137', 'JZ0', 'O-Cresol,(S)', 'Carvacrol derivative, 9', 'o-Cresol, >=99%', 'bmse000433', 'UN 2076 (Related)', 'EC 202-423-8', '2-Methylphenol (o-cresol)', 'ortho-cresol,2-methylphenol', 'SCHEMBL16002', 'MLS002454426', 'o-Cresol, analytical standard', 'BIDD:ER0677', 'CHEMBL46931', '3C7H8O', 'ACMC-1C144', 'DTXSID8021808', 'FEMA 3480', 'BDBM248166', 'HMS2268O24', 'LABOTEST-BB LTBB001400', 'ZINC901022', 'o-Cresol, for synthesis, 99.3%', '2-Methylphenol, analytical standard', 'NSC23076', 'NSC36809', 'Tox21_202305', 'Tox21_300021', 'NSC-23076', 'NSC-36809', 'STL194295', 'o-Cresol, ReagentPlus(R), >=99%', 'AKOS000119021', 'AS00217', 'MCULE-4124485112', 'NCGC00091534-01', 'NCGC00091534-02', 'NCGC00091534-03', 'NCGC00091534-04', 'NCGC00254140-01', 'NCGC00259854-01', 'o-Cresol, SAJ first grade, >=97.0%', 'SMR001252248', '2-Methylphenol 100 microg/mL in Methanol', 'FT-0656046', 'Z3651', '7520-EP2277867A2', '7520-EP2280003A2', '7520-EP2292227A2', '7520-EP2295426A1', '7520-EP2295427A1', '7520-EP2295435A1', '7520-EP2298751A2', '7520-EP2302015A1', '7520-EP2305683A1', '7520-EP2308861A1', '7520-EP2311839A1', '7520-EP2314584A1', '7520-EP2314589A1', '7520-EP2316470A2', '7520-EP2316832A1', '7520-EP2316833A1', '7520-EP2316837A1', 'C01542', '19034-EP2311811A1', '19034-EP2314576A1', '28670-EP2279750A1', '28670-EP2284146A2', '28670-EP2284147A2', '28670-EP2284165A1', '28670-EP2287159A1', '28670-EP2305673A1', '28670-EP2308838A1', '28670-EP2308865A1', '28670-EP2308877A1', '28670-EP2311815A1', '28670-EP2311834A1', '28670-EP2314579A1', '28670-EP2372017A1', '45193-EP2311821A1', '93911-EP2269977A2', '93911-EP2305625A1', '1-Hydroxyl 2-Methyl Benzene, 2-Hydroxyl Toluene', 'Q312708', 'J-006098', 'J-523819', 'F0001-2271', 'UNII-3JYG22FD73 component QWVGKYWNOKOFNN-UHFFFAOYSA-N', 'UNII-GF3CGH8D7Z component QWVGKYWNOKOFNN-UHFFFAOYSA-N']"
67;3-methylphenol;-1;C7H8O;108.14;CC1=CC(=CC=C1)O;342;343.4;-74.1;;;;-5.5;-11.1;-9.5;-9.7;10.1;;;;"['m-cresol', '3-methylphenol', 'Metacresol', '108-39-4', 'Phenol, 3-methyl-', 'meta-cresol', '3-cresol', '3-hydroxytoluene', 'm-methylphenol', 'm-kresol', 'm-oxytoluene', 'm-cresylic acid', 'm-toluol', '1-hydroxy-3-methylbenzene', 'm-Hydroxytoluene', 'meta-cresylic acid', 'hydroxy-3-methylbenzene', 'CRESOL, META', 'm-cresylic', 'm-Cresole', '3-methyl-1-hydroxybenzene', 'UNII-GGO4Y809LO', 'NSC 8768', 'GGO4Y809LO', 'CHEMBL298312', 'Phenol, 3-methyl-, homopolymer', 'CHEBI:17231', 'm-Cresol, 99%', 'TOLUENE,3-HYDROXY  (META-CRESOL)', 'DSSTox_CID_4200', 'Franklin Cresolis', 'DSSTox_RID_77325', 'DSSTox_GSID_24200', 'Metacresol (3-Methylphenol)', 'CRS', 'm-Kresol [German]', ""Rover's Dog Shampoo"", 'Caswell No. 261A', 'meta cresol', 'MFCD00002302', '3-methyl phenol', '1-Methyl-3-hydroxybenzene', 'Cresol, m-isomer', '27289-33-4', 'CAS-108-39-4', 'CCRIS 645', 'Cresol, m-', 'FEMA No. 3530', 'HSDB 1815', 'Metacresol [USP:BAN]', 'EINECS 203-577-9', 'EPA Pesticide Chemical Code 022102', '3methylphenol', 'AI3-00136', '3-methyl-phenol', 'Cresol,m-', 'm-Cresol;', 'Celcure Dry Mix (chemicals for wood preserving)', 'Metacresol (USP)', 'ACMC-1BYYH', 'bmse000350', 'EC 203-577-9', 'WLN: QR C1', 'SCHEMBL10736', 'm-Cresol, analytical standard', 'm-Cresol, >=98%, FG', 'SCHEMBL7410931', 'DTXSID6024200', 'm-Cresol, for synthesis, 99%', 'm-Cresol, reagent grade, 97%', 'NSC8768', 'm-Cresol, Ph.Eur., 99.5%', 'ZINC897141', '3-Methylphenol, analytical standard', 'NSC-8768', 'Tox21_201941', 'Tox21_302645', 'BDBM50008548', 'STL185666', 'AKOS000119006', 'AM62795', 'CCG-230271', 'DB01776', 'MCULE-6836106503', 'NCGC00159366-02', 'NCGC00159366-03', 'NCGC00159366-04', 'NCGC00159366-05', 'NCGC00159366-06', 'NCGC00256824-01', 'NCGC00259490-01', 'AC-14350', 'BS-23591', 'm-Cresol, SAJ first grade, >=97.0%', '3-Methylphenol 100 microg/mL in Methanol', 'FT-0628174', 'm-Cresol [UN2076]  [Poison, Corrosive]', '3863-EP2270114A1', '3863-EP2298750A1', 'C01467', 'D04951', '28671-EP2314579A1', 'A801870', 'Q312240', 'J-002137', 'J-521679', 'F0001-0167', 'Z955123620', 'UNII-3JYG22FD73 component RLSSMJSEOOYNOY-UHFFFAOYSA-N', 'UNII-GF3CGH8D7Z component RLSSMJSEOOYNOY-UHFFFAOYSA-N', 'Metacresol, United States Pharmacopeia (USP) Reference Standard']"
68;4-methylphenol;-1;C7H8O;108.14;CC1=CC=C(C=C1)O;2879;345.0;-76.1;;;;-6.1;-11.0;-9.5;-9.7;10.3;;;;['P-CRESOL', '4-Methylphenol', '106-44-5', '4-Cresol', '4-Hydroxytoluene', 'Phenol, 4-methyl-', 'para-Cresol', 'p-Methylphenol', 'p-Hydroxytoluene', 'p-Tolyl alcohol', 'p-Kresol', 'p-Oxytoluene', 'p-Toluol', 'p-Cresylic acid', '1-Hydroxy-4-methylbenzene', 'p-Methylhydroxybenzene', 'Paracresol', 'Paramethyl phenol', '1-Methyl-4-hydroxybenzene', 'para-Cresylic acid', '4-methyl phenol', 'Cresol, para-', 'p-Kresol [German]', 'Cresol, p-isomer', 'Cresol, p-', 'CRESOL, PARA', 'p-Methyl phenol', 'UNII-1MXY2UM8NV', '4-methyl-phenol', '4-methylphenol (p-cresol)', 'NSC 3696', 'MFCD00002376', '1MXY2UM8NV', 'Tricresol', 'CHEMBL16645', 'Phenol, 4-methyl-, homopolymer', 'CHEBI:17847', 'NCGC00091519-04', 'TOLUENE,4-HYDROXY  (PARA-CRESOL)', 'p-Cresol [UN2076]  [Poison, Corrosive]', 'DSSTox_CID_1869', 'DSSTox_RID_76375', 'DSSTox_GSID_21869', 'PCR', '27289-34-5', 'CAS-106-44-5', 'CCRIS 647', 'FEMA No. 2337', 'HSDB 1814', 'EINECS 203-398-6', 'para cresol', 'p-Cresylate', 'p-methyl-phenol', 'AI3-00150', '4 -methylphenol', 'Cresol,p-', 'para-cresyl alcohol', 'Phenol, 4-methyI', 'p-Cresol, 99%', 'Spectrum_000850', 'p-Cresol, High Purity', '4-Methyl Phenol 99%', 'Spectrum2_000765', 'Spectrum4_001740', 'Spectrum5_000540', 'ACMC-1BP9F', 'SCHEMBL375', 'bmse000458', 'EC 203-398-6', 'DSSTox_RID_77380', 'DSSTox_RID_77554', 'NCIOpen2_001516', 'WLN: QR D1', 'DSSTox_GSID_24364', 'DSSTox_GSID_24858', 'KBioGR_002160', 'KBioSS_001330', '1-Hydroxyl 4-Methyl Benzene', 'p-Cresol, analytical standard', 'BIDD:ER0010', 'DivK1c_000381', 'SPECTRUM1500209', 'p-Cresol, >=99%, FG', 'SPBio_000810', 'SCHEMBL7812506', 'SGCUT00097', 'DTXSID7021869', 'HMS501D03', 'KBio1_000381', 'KBio2_001330', 'KBio2_003898', 'KBio2_006466', 'NSC3696', 'NINDS_000381', 'HMS1920A16', 'HMS2091I04', 'Pharmakon1600-01500209', 'ZINC897142', 'p-Cresol, for synthesis, 98.0%', '4-Methylphenol, analytical standard', 'NSC-3696', 'NSC95259', 'to_000033', 'Tox21_113240', 'Tox21_113445', 'Tox21_200402', 'Tox21_201115', 'Tox21_300029', 'BDBM50008543', 'CCG-38990', 'NSC-95259', 'NSC756709', 'STL183323', 'AKOS000119005', 'Tox21_113445_1', 'DB01688', 'MCULE-2287247927', 'NSC-756709', 'IDI1_000381', 'NCGC00013272-01', 'NCGC00091519-01', 'NCGC00091519-02', 'NCGC00091519-03', 'NCGC00091519-05', 'NCGC00091519-06', 'NCGC00091519-07', 'NCGC00091519-09', 'NCGC00253980-01', 'NCGC00257956-01', 'NCGC00258667-01', '4-Methylphenol 10 microg/mL in Methanol', 'PS-11958', 'CAS-1319-77-3', 'p-Cresol, JIS special grade, >=99.0%', 'SBI-0051322.P003', 'FT-0660000', '4-Methylphenol 100 microg/mL in Cyclohexane', 'p-Cresol, puriss. p.a., >=99.0% (GC)', '3645-EP2269989A1', '3645-EP2269992A1', '3645-EP2270505A1', '3645-EP2272517A1', '3645-EP2275413A1', '3645-EP2275414A1', '3645-EP2275420A1', '3645-EP2277865A1', '3645-EP2277880A1', '3645-EP2277898A2', '3645-EP2284157A1', '3645-EP2287165A2', '3645-EP2287166A2', '3645-EP2292088A1', '3645-EP2292227A2', '3645-EP2292593A2', '3645-EP2292610A1', '3645-EP2292620A2', '3645-EP2295406A1', '3645-EP2295407A1', '3645-EP2295423A1', '3645-EP2295429A1', '3645-EP2295503A1', '3645-EP2298736A1', '3645-EP2298742A1', '3645-EP2298750A1', '3645-EP2298772A1', '3645-EP2301536A1', '3645-EP2301538A1', '3645-EP2305250A1', '3645-EP2305633A1', '3645-EP2305808A1', '3645-EP2305825A1', '3645-EP2308839A1', '3645-EP2308855A1', '3645-EP2311455A1', '3645-EP2311494A1', '3645-EP2311811A1', '3645-EP2311822A1', '3645-EP2314590A1', '3645-EP2316452A1', '3645-EP2316830A2', '3645-EP2316937A1', '3645-EP2316974A1', '3645-EP2374895A1', 'C01468', '88248-EP2269977A2', '88248-EP2284157A1', '88248-EP2305625A1', '88248-EP2305648A1', 'AB00051955_02', 'Q312251', 'SR-05000002037', 'J-001591', 'J-515803', 'SR-05000002037-1', 'F1908-0066', 'UNII-3JYG22FD73 component IWDCLRJOBJJRNH-UHFFFAOYSA-N', 'UNII-GF3CGH8D7Z component IWDCLRJOBJJRNH-UHFFFAOYSA-N', '2876-02-0']