Number;IUPAC_name;Charge;Molecular Formula;Molecular Weight [g/mol];Isomeric SMILES;Pubchem CID;GasPhaseAcidity_B2PLYP//DLPNO-CCSD(T) [kcal/mol];GSolv_Ion_Water [kcal/mol];GSolv_Ion_DMSO [kcal/mol];GSolv_Ion_Acetonitrile [kcal/mol];GSolv_Ion_MeOH [kcal/mol];Gsolv_Neutral_Water_exp [kcal/mol];Gsolv_Neutral_DMSO_TZVPD-Fine [kcal/mol];Gsolv_Neutral_Acetonitrile_TZVPD-Fine [kcal/mol];Gsolv_Neutral_MeOH_TZVPD-Fine [kcal/mol];pka_water;pka_DMSO;pka_Acetonitrile;pka_MeOH;Synonyms
132;sulfane;1;H2S;34.08;S;402;161.1;;;-103.7;;;-3.1;-3.1;-2.5;;;0.5;;"['hydrogen sulfide', 'sulfane', 'Hydrosulfuric acid', 'Hydrogen sulphide', 'Stink DAMP', 'Dihydrogen monosulfide', 'Dihydrogen sulfide', 'Sulfureted hydrogen', 'Sewer gas', 'Netzschwefel', 'Kolospray', 'Liquamat', 'Micowetsulf', 'Microflotox', 'Colsul', 'Crystex', 'Elosal', 'Hexasul', 'Kolofog', 'Kumulus', 'Sastid', '7783-06-4', 'Cosan', 'Hydrogen sulfide (H2S)', 'Polsulkol Extra', 'Hydrogene sulfure', 'Acide sulfhydrique', 'Schwefelwasserstoff', 'Corosul D and S', 'RC-Schwefel Extra', 'Kolloidschwefel 95', 'Siarkowodor', 'Zwavelwaterstof', 'Cosan 80', 'Hepatic acid', 'Hydrogen-sulfide', 'Idrogeno solforato', 'Kolo 100', 'Hydrogen monosulfide', 'Sulfuretted hydrogen', 'Hepatic gas', 'RCRA waste number U135', 'H2S', 'CHEBI:16136', 'CHEBI:26833', 'UNII-YY9FVM7NSN', 'YY9FVM7NSN', 'UN 1053', 'NSC-403664', 'Collokit', 'Kristex', 'Microthiol', 'Shreesul', 'Kumulus FL', 'Magnetic 6', 'Q60998679', 'Caswell No. 812', 'azufre', 'Proactiv', 'Transact', 'Schwefel, feinverteilter', 'Hydrogene sulphure', 'Acide sulphhydrique', 'Siarkowodor [Polish]', 'Hydrogen sulfide H2S', 'Hydrogen sulfuric acid', 'Magnetic 70, 90, and 95', 'HSDB 5166', 'Zwavelwaterstof [Dutch]', 'EINECS 231-722-6', 'NA1350', 'NA2448', 'UN1350', 'UN2448', 'Hydrogen sulfure [French]', 'RCRA waste no. U135', 'EPA Pesticide Chemical Code 077501', 'Hydrogene sulfure [French]', 'NSC 403664', 'Acide sulfhydrique [French]', 'dihydridosulfur', 'monosulfane', 'Schwefelwasserstoff [German]', 'theion', 'Hydrosulfurate', 'Idrogeno solforato [Italian]', 'Acnaveen', 'Cuticura', 'Eskamel', 'Hepatate', 'Schwefel', 'Acnil', 'Meted', 'FEMA No. 3779', 'Thio radical', 'HSDB 576', 'Hydrogen sulfure', 'Sour gas', 'Dome-Acne', 'intracellular S0', 'Bensulfoid (TN)', 'dihydrogen(sulfide)', ""sulfure d'hydrogene"", 'EINECS 231-977-3', 'Sastid (TN)', 'UN1053', 'component of Bensulfoid', 'Sour gas (Salt/Mix)', 'Dicyclopropylketone, 90%', 'Magnetic 70, and 95', 'EC 231-722-6', 'Hydrogen sulfide (solution)', '37331-50-3', '63705-05-5', 'Hydrogen sulfide, >=99.5%', 'CHEMBL1200739', 'CHEMBL2105487', 'DTXSID4024149', 'DTXSID9034941', 'NIOSH/MX1229000', '[SH2]', 'Sulfur [NA1350]  [Class 9]', '8984AF', 'BDBM50147625', 'BDBM50498447', 'NSC403664', 'Hydrogen sulfide, purum, >=99.0%', 'AKOS015833648', 'AKOS015950634', 'Sulfur [UN1350]  [Flammable solid]', 'BP-21056', 'Sulfur, molten [NA2448]  [Class 9]', 'Hydrogen sulfide solution, 0.8 M in THF', 'Hydrogen sulfide [UN1053]  [Poison gas]', 'FT-0698736', 'MX12290000', 'Sulfur, powder, 99.998% trace metals basis', 'C00087', 'C00283', 'D00024', 'EC 231-977-3', 'F21255', 'Sulfur, molten [UN2448]  [Flammable solid]', 'A857440', 'Q170591', 'Q7636182', 'F5FD384D-E823-4920-B313-6476A1F3F0C5']"
133;2-methylpropan-1-amine;1;C4H11N;73.14;CC(C)CN;6558;213.6;;;-76.0;;;-3.7;-4.2;-5.8;;;17.9;;['ISOBUTYLAMINE', '78-81-9', '2-methylpropan-1-amine', '1-Amino-2-methylpropane', '2-Methylpropylamine', '1-Propanamine, 2-methyl-', 'iso-Butylamine', 'Monoisobutylamine', 'Valamine', 'I-Butylamine', '2-Methylpropanamine', '3-Methyl-2-propylamine', '2-Methyl-1-propanamine', 'isobutyl amine', '2-Methyl-1-Aminopropane', '2-methyl-1-propylamine', 'UNII-1H60H4LOHZ', 'NSC 8028', 'iso-C4H9NH2', 'MFCD00008146', '1H60H4LOHZ', 'Isobutylamine, 99%', 'CCRIS 6250', 'HSDB 612', 'EINECS 201-145-4', 'UN1214', 'isobutyl-amine', 'iso-butyl amine', 'AI3-24039', 'Valamine?', 'N-iso-butylamine', 'iBuNH2', 'Isobutylamine, 8CI', '2-methylpropyl amine', '(2-methylpropyl)amine', 'i-BuNH2', 'ACMC-209pfe', '2-methylpropane-1-amine', '1-amino-2-methyl-propane', '2-Methyl-1-propanamine, 9CI', 'DTXSID9025459', 'CHEBI:15997', 'WLN: Z1Y1&1', 'NSC8028', 'Isobutylamine, analytical standard', 'NSC-8028', 'STR01259', 'ZINC4658586', '7114AF', 'BBL027687', 'STL183318', 'AKOS000119607', 'MCULE-8319193456', 'UN 1214', 'Isobutylamine, purum, >=98.0% (GC)', 'DB-056335', 'FT-0607317', 'FT-0695051', 'I0095', 'Isobutylamine [UN1214]  [Flammable liquid]', 'C02787', '79530-EP2305695A2', '79530-EP2305696A2', '79530-EP2305697A2', '79530-EP2305698A2', '137382-EP2277848A1', '137382-EP2287141A1', '137382-EP2292606A1', '137382-EP2377849A2', 'Q416655', 'J-510080', 'F2190-0360']
134;anisole;1;C7H8O;108.14;COC1=CC=CC=C1;7519;181.4;;;-85.2;;;-5.8;-6.2;-5.8;;;-0.5;;"['ANISOLE', 'Methoxybenzene', '100-66-3', 'Benzene, methoxy-', 'Methyl phenyl ether', 'Anisol', 'Phenyl methyl ether', 'Phenoxymethane', 'Anizol', 'Phenol methyl ether', 'Methoxy-Benzene', '4-methoxybenzene', 'HSDB 44', 'UNII-B3W693GAZH', 'NSC 7920', 'Ether, methyl phenyl-', 'B3W693GAZH', 'CHEBI:16579', '4-methoxy-benzene', 'MFCD00008354', 'Benzene, methoxy', 'Ether, methyl phenyl', 'FEMA Number 2097', 'FEMA No. 2097', 'EINECS 202-876-1', 'UN2222', 'Anisloe', 'anisole-', 'AI3-00042', 'methylphenyl ether', '4-methoxy benzene', 'Anethole,(S)', 'Methyl phenyl-Ether', 'Anisole, 8CI', 'Anisole Methoxybenzene', 'Methoxy-Benzeneanisole', '154492-88-3', 'Anisole-[13C]', 'Methoxy-benzene (anisol)', 'bmse010217', 'EC 202-876-1', 'SCHEMBL1205', 'WLN: 1OR', 'Anisole, analytical standard', 'ACMC-1C6S9', 'Anisole, anhydrous, 99.7%', 'SCHEMBL497674', 'AQUALINE STANDARD 1.0', 'Aqualine&trade; Standard 1.1', 'CHEMBL278024', 'DTXSID4041608', 'SCHEMBL12015260', 'FEMA 2097', 'Anisole, ReagentPlus(R), 99%', 'NSC7920', 'METHOXY-BENZENE  (ANISOL)', 'Anisole, >=99%, FCC, FG', 'LABOTEST-BB LTBB002265', 'ZINC897131', 'AMY38503', 'NSC-7920', 'BDBM50386177', 'CE0043', 'EpiMediuM BreviconuM P.E.(Icariin)', 'STL263485', 'AKOS000120161', 'ZINC329788065', 'ZINC329788108', 'AS04310', 'CCG-266043', 'MCULE-2691526560', 'UN 2222', 'Anisole [UN2222]  [Flammable liquid]', 'I767', 'LS-13275', 'DB-003588', 'A0492', 'FT-0628309', 'FT-0652964', 'FT-0662229', 'A14924', 'C01403', 'M03556', '14387-EP2272822A1', '14387-EP2316836A1', '19606-EP2269986A1', '19606-EP2269995A1', '19606-EP2270000A1', '19606-EP2272517A1', '19606-EP2272822A1', '19606-EP2272832A1', '19606-EP2275411A2', '19606-EP2281818A1', '19606-EP2281821A1', '19606-EP2284148A1', '19606-EP2284165A1', '19606-EP2284169A1', '19606-EP2287141A1', '19606-EP2287161A1', '19606-EP2287162A1', '19606-EP2289894A2', '19606-EP2289897A1', '19606-EP2289965A1', '19606-EP2292592A1', '19606-EP2292593A2', '19606-EP2292624A1', '19606-EP2298767A1', '19606-EP2298768A1', '19606-EP2298770A1', '19606-EP2298778A1', '19606-EP2298828A1', '19606-EP2301924A1', '19606-EP2301933A1', '19606-EP2301937A1', '19606-EP2301983A1', '19606-EP2305250A1', '19606-EP2305667A2', '19606-EP2305685A1', '19606-EP2305686A1', '19606-EP2308510A1', '19606-EP2308562A2', '19606-EP2308833A2', '19606-EP2308857A1', '19606-EP2308867A2', '19606-EP2308870A2', '19606-EP2308880A1', '19606-EP2308926A1', '19606-EP2308960A1', '19606-EP2309564A1', '19606-EP2311827A1', '19606-EP2314558A1', '19606-EP2314576A1', '19606-EP2314587A1', '19606-EP2314590A1', '19606-EP2314591A1', '37374-EP2311802A1', '37374-EP2311803A1', '56738-EP2277868A1', '56738-EP2277869A1', '56738-EP2277870A1', '56738-EP2292608A1', '56738-EP2295422A2', '56738-EP2298305A1', '56738-EP2298746A1', '56738-EP2298769A1', '56738-EP2308878A2', '56738-EP2371806A1', '56738-EP2371807A1', '56738-EP2380568A1', '187286-EP2272849A1', 'Q312244', 'J-000194', 'F1908-0172', 'Anisole, United States Pharmacopeia (USP) Reference Standard', 'Anisole, Pharmaceutical Secondary Standard; Certified Reference Material']"
135;butan-1-ol;1;C4H10O;74.12;CCCCO;263;181.0;;;-88.5;;;-6.3;-5.5;-6.5;;;2.2;;"['1-butanol', 'Butan-1-ol', 'butanol', 'n-butanol', 'Butyl alcohol', '71-36-3', 'n-butyl alcohol', '1-hydroxybutane', 'Propylcarbinol', 'Butyl hydroxide', 'Propylmethanol', 'Methylolpropane', 'Hemostyp', 'Butyric alcohol', 'n-Butan-1-ol', '1-Butyl alcohol', 'Butanolo', 'Propyl carbinol', 'Alcool butylique', 'Butylowy alkohol', 'BuOH', 'Butanolen', 'Normal primary butyl alcohol', 'RCRA waste number U031', 'CCS 203', 'n-BuOH', 'Butyric or normal primary butyl alcohol', 'n-Butylalkohol', 'butanol-1', 'n-Propyl carbinol', 'UNII-8PJ61P6TS3', 'NSC 62782', 'Butyl alcohol (NF)', 'Butyl alcohol [NF]', 'MFCD00002964', 'CHEMBL14245', '8PJ61P6TS3', '35296-72-1', 'CHEBI:28885', 'NCGC00090961-02', 'Butanols', 'DSSTox_CID_1740', 'Butanol [French]', 'DSSTox_RID_76300', 'DSSTox_GSID_21740', 'Butanolen [Dutch]', 'Butanolo [Italian]', '1-Butanol, analytical standard', 'Butyl alcohol (natural)', 'FEMA Number 2178', 'Alcool butylique [French]', 'Butylowy alkohol [Polish]', '1 Butanol', '1-Butanol, ACS reagent, >=99.4%', 'CAS-71-36-3', '1BO', 'HSDB 48', 'Butanol, 1-', 'FEMA No. 2178', 'CCRIS 4321', 'EINECS 200-751-6', 'RCRA waste no. U031', 'butaneol', 'butylalcohol', 'butyl-alcohol', 'n-butylalcohol', 'normal butanol', '1-butylalcohol', 'AI3-00405', 'n-Butanolbutanolen', 'nBuOH', '1 -butanol', '1- butanol', '1-n-Butanol', '1-Butanol, anhydrous', 'N-Butyl Alcohol,(S)', 'ACMC-209oic', '1-Butanol, for HPLC', 'n-Butanol, HPLC grade', '1-Butanol, 99%', '1-Butanol, HPLC Grade', 'n-C4H9OH', 'bmse000447', 'NA 1120 (Related)', '1-Butanol, 99.9%', 'EC 200-751-6', 'WLN: Q4', 'BIDD:ER0611', 'Nat. Butanol (Butyl alcohol)', 'Aqualine&trade; Standard 5.1', '1-Butanol, LR, >=99%', 'Aqualine&trade; Standard 10.1', 'DTXSID1021740', 'BDBM36173', 'Butyl Alcohol (Fragrance Grade)', 'Butyl Alcohol Reagent Grade ACS', '1-Butanol, anhydrous, 99.8%', 'Butyl Alcohol (Industrial Grade)', 'N-Butanol, ACS, 99.4+%', '1-Butanol, AR, >=99.5%', '1-Butanol, for HPLC, 99.8%', 'Butyl alcohol, >=99.9%, FCC', 'NSC62782', 'ZINC1530354', 'Tox21_111046', 'Tox21_200741', 'LMFA05000109', 'NSC-62782', 'STL264186', 'AKOS000249218', 'ZINC100492542', '1-Butanol 500 microg/mL in Methanol', '1-Butanol, for HPLC, >=99.7%', 'DB02145', 'MCULE-1571156443', 'Butyl alcohol, >=99.9%, FCC, FG', 'NCGC00090961-01', 'NCGC00090961-03', 'NCGC00258295-01', 'BP-30034', '1-Butanol, SAJ first grade, >=99.0%', '1-Butanol, for molecular biology, >=99%', '1-Butanol, JIS special grade, >=99.0%', '1-Butanol, p.a., ACS reagent, 99.4%', '1-Butanol, for HPLC, >=99.8% (GC)', '1-Butanol, spectrophotometric grade, 99.5%', '1-Butanol, UV HPLC spectroscopic, 99.5%', '409-EP2269993A1', '409-EP2269994A1', '409-EP2269995A1', '409-EP2270000A1', '409-EP2270012A1', '409-EP2270013A1', '409-EP2272516A2', '409-EP2272832A1', '409-EP2272846A1', '409-EP2272849A1', '409-EP2274983A1', '409-EP2275409A1', '409-EP2275413A1', '409-EP2275422A1', '409-EP2277858A1', '409-EP2277866A1', '409-EP2277868A1', '409-EP2277869A1', '409-EP2277870A1', '409-EP2277875A2', '409-EP2277880A1', '409-EP2280005A1', '409-EP2281812A1', '409-EP2281818A1', '409-EP2287154A1', '409-EP2287156A1', '409-EP2289871A1', '409-EP2289880A1', '409-EP2289884A1', '409-EP2289897A1', '409-EP2289965A1', '409-EP2292592A1', '409-EP2292608A1', '409-EP2292610A1', '409-EP2292624A1', '409-EP2295412A1', '409-EP2295413A1', '409-EP2295418A1', '409-EP2295424A1', '409-EP2298076A1', '409-EP2298077A1', '409-EP2298313A1', '409-EP2298738A1', '409-EP2298746A1', '409-EP2298747A1', '409-EP2298760A1', '409-EP2298769A1', '409-EP2298777A2', '409-EP2298828A1', '409-EP2301353A1', '409-EP2301627A1', '409-EP2301928A1', '409-EP2305031A1', '409-EP2305034A1', '409-EP2305035A1', '409-EP2305219A1', '409-EP2305625A1', '409-EP2305642A2', '409-EP2305655A2', '409-EP2305667A2', '409-EP2305680A2', '409-EP2305681A1', '409-EP2305685A1', '409-EP2305686A1', '409-EP2308510A1', '409-EP2308839A1', '409-EP2308849A1', '409-EP2308850A1', '409-EP2308857A1', '409-EP2308858A1', '409-EP2308866A1', '409-EP2308867A2', '409-EP2308869A1', '409-EP2308878A2', '409-EP2311801A1', '409-EP2311802A1', '409-EP2311803A1', '409-EP2311807A1', '409-EP2311815A1', '409-EP2311816A1', '409-EP2311817A1', '409-EP2311824A1', '409-EP2311838A1', '409-EP2314558A1', '409-EP2314576A1', '409-EP2314591A1', '409-EP2371797A1', '409-EP2371798A1', '409-EP2371811A2', '409-EP2371814A1', '409-EP2371823A1', '409-EP2374538A1', '409-EP2374791A1', '409-EP2375479A1', '409-EP2377510A1', 'B0228', 'B0704', 'B0944', 'FT-0607555', 'FT-0623296', 'FT-0774976', 'V0248', '1-Butanol, anhydrous, ZerO2(TM), 99.8%', '1-Butanol, Ultrapure, Spectrophotometric Grade', '7730-EP2269990A1', '7730-EP2270008A1', '7730-EP2272517A1', '7730-EP2272813A2', '7730-EP2275423A1', '7730-EP2277866A1', '7730-EP2277876A1', '7730-EP2280014A2', '7730-EP2281822A1', '7730-EP2284159A1', '7730-EP2284160A1', '7730-EP2284165A1', '7730-EP2284169A1', '7730-EP2284172A1', '7730-EP2284174A1', '7730-EP2286811A1', '7730-EP2287161A1', '7730-EP2287162A1', '7730-EP2287168A2', '7730-EP2289509A2', '7730-EP2289892A1', '7730-EP2292613A1', '7730-EP2292614A1', '7730-EP2292616A1', '7730-EP2292617A1', '7730-EP2295413A1', '7730-EP2295424A1', '7730-EP2295426A1', '7730-EP2295427A1', '7730-EP2295428A2', '7730-EP2295435A1', '7730-EP2298731A1', '7730-EP2298732A1', '7730-EP2298769A1', '7730-EP2298773A1', '7730-EP2301913A1', '7730-EP2301914A1', '7730-EP2301928A1', '7730-EP2301936A1', '7730-EP2305033A1', '7730-EP2305825A1', '7730-EP2308510A1', '7730-EP2308832A1', '7730-EP2308857A1', '7730-EP2308861A1', '7730-EP2311796A1', '7730-EP2311797A1', '7730-EP2311798A1', '7730-EP2311799A1', '7730-EP2311801A1', '7730-EP2311802A1', '7730-EP2311803A1', '7730-EP2311818A1', '7730-EP2311821A1', '7730-EP2311830A1', '7730-EP2314577A1', '7730-EP2314585A1', '7730-EP2316826A1', '7730-EP2371797A1', '7730-EP2371798A1', '7730-EP2371805A1', '7730-EP2371814A1', '7730-EP2374783A1', '7730-EP2377841A1', '7730-EP2380873A1', 'Butyl alcohol, natural, >=99.5%, FCC, FG', 'C06142', 'D03200', 'Q16391', '55814-EP2269986A1', '55814-EP2269992A1', '55814-EP2269995A1', '55814-EP2270008A1', '55814-EP2272517A1', '55814-EP2272817A1', '55814-EP2275411A2', '55814-EP2275414A1', '55814-EP2277880A1', '55814-EP2280001A1', '55814-EP2280002A1', '55814-EP2281563A1', '55814-EP2281821A1', '55814-EP2287152A2', '55814-EP2292610A1', '55814-EP2292617A1', '55814-EP2295411A1', '55814-EP2295414A1', '55814-EP2295438A1', '55814-EP2298753A1', '55814-EP2298763A1', '55814-EP2298768A1', '55814-EP2301919A1', '55814-EP2301923A1', '55814-EP2305625A1', '55814-EP2305642A2', '55814-EP2305667A2', '55814-EP2305676A1', '55814-EP2305687A1', '55814-EP2308838A1', '55814-EP2308864A1', '55814-EP2308866A1', '55814-EP2371811A2', '55814-EP2374780A1', '55814-EP2374781A1', '55814-EP2380568A1', '68993-EP2277848A1', '68993-EP2295412A1', '68993-EP2295413A1', '68993-EP2308861A1', '68993-EP2371797A1', '68993-EP2371798A1', '71511-EP2277876A1', '71511-EP2287165A2', '71511-EP2287166A2', '71511-EP2292614A1', '71511-EP2292620A2', '71511-EP2308833A2', '127573-EP2269996A1', '127573-EP2270113A1', '127573-EP2272935A1', '127573-EP2274983A1', '127573-EP2275411A2', '127573-EP2295402A2', '137926-EP2269986A1', '137926-EP2287152A2', '137926-EP2292088A1', 'F0001-1830', 'Z966690700', '1-Butanol, puriss. p.a., ACS reagent, >=99.5% (GC)', 'BDBC6468-886D-4F6C-8746-734F2B63E6CE', 'UNII-WB09NY83YA component LRHPLDYGYMQRHN-UHFFFAOYSA-N', '1-Butanol, ACS reagent, reag. ISO, reag. Ph. Eur., 99.5%', '1-Butanol, United States Pharmacopeia (USP) Reference Standard', '1-Butanol, Pharmaceutical Secondary Standard; Certified Reference Material', '1-Butanol, puriss. p.a., ACS reagent, reag. ISO, reag. Ph. Eur., >=99.5% (GC)']"
136;butan-1-amine;1;C4H11N;73.14;CCCCN;8007;212.8;;;-77.4;-69.7;;-3.7;-4.1;-5.7;;;18.3;11.5;['Butylamine', 'N-BUTYLAMINE', 'butan-1-amine', '1-Butanamine', '109-73-9', '1-Aminobutane', '1-Butylamine', 'Monobutylamine', 'N-Butylamin', 'Mono-n-butylamine', 'Norvalamine', '1-Aminobutan', '1-Amino-butaan', 'Monobutilamina', 'Butanamine', 'butyl amine', 'n-Butilamina', 'n-butyl amine', 'Norralamine', 'UNII-N2QV60B4WR', 'NSC 8029', 'MFCD00011690', 'n-C4H9NH2', 'N2QV60B4WR', 'CHEBI:43799', 'n-Butylamin [German]', 'n-Butilamina [Italian]', '1-Aminobutan [German]', 'FEMA Number 3130', 'Monobutilamina [Romanian]', '1-Amino-butaan [Dutch]', 'FEMA No. 3130', 'CCRIS 4756', 'HSDB 515', 'EINECS 203-699-2', 'UN1125', 'Aminobutane', 'Butylarnine', 'n-butyiamine', 'AI3-24197', 'n-butyl-amine', 'butane-1-amine', 'n-butan-1-amine', 'normal-butyl amine', 'N-Butylamine NBA', 'Butylamine, 99%', 'nBuNH2', '1-Butanamine, 9CI', 'BuNH2', 'Aminobutane (Related)', 'n-BuNH2', 'BUTYLAMINE, N', 'Butylamine, >=99%', 'Butylamine, 99.5%', '1-AMINO-BUTANE', '1-Butanaminen-butilamina', 'DSSTox_CID_1904', 'EC 203-699-2', 'DSSTox_RID_76395', 'NCIOpen2_009229', 'DSSTox_GSID_21904', 'WLN: Z4', 'CHEMBL13968', 'Butylamine, puriss., 99.0%', 'DTXSID1021904', 'FEMA 3130', 'NSC8029', 'ACMC-209948', 'AMY21914', 'NSC-8029', 'STR01992', 'ZINC1586365', 'Tox21_301131', 'BBL027788', 'STL308736', 'AKOS000118810', 'Butylamine, purum, >=98.0% (GC)', 'Butylamine, purum, >=99.0% (GC)', 'DB03659', 'MCULE-4233278050', 'UN 1125', 'Butylamine, analytical reference material', 'Butylamine, puriss., >=99.5% (GC)', 'NCGC00248302-01', 'NCGC00255030-01', 'BP-30251', 'CAS-109-73-9', 'LYT', 'B0707', 'FT-0623326', 'n-Butylamine [UN1125]  [Flammable liquid]', '4454-EP2281563A1', '4454-EP2287141A1', '4454-EP2289510A1', '4454-EP2289887A2', '4454-EP2289888A2', '4454-EP2289894A2', '4454-EP2298746A1', '4454-EP2305629A1', '4454-EP2308838A1', '4454-EP2308867A2', '4454-EP2308870A2', '4454-EP2311804A2', '12339-EP2270010A1', '12339-EP2272517A1', '12339-EP2289509A2', '12339-EP2292619A1', '12339-EP2295418A1', '12339-EP2298742A1', '12339-EP2298761A1', '12339-EP2305250A1', '12339-EP2305642A2', '12339-EP2308812A2', '12339-EP2314298A1', '12339-EP2314593A1', '12339-EP2316974A1', '12339-EP2377849A2', '56744-EP2298305A1', '56744-EP2298769A1', '56744-EP2308878A2', 'Q421035', 'J-002322', 'F2190-0358']