Number;IUPAC_name;Charge;Molecular Formula;Molecular Weight [g/mol];Isomeric SMILES;Pubchem CID;GasPhaseAcidity_B2PLYP//DLPNO-CCSD(T) [kcal/mol];GSolv_Ion_Water [kcal/mol];GSolv_Ion_DMSO [kcal/mol];GSolv_Ion_Acetonitrile [kcal/mol];GSolv_Ion_MeOH [kcal/mol];Gsolv_Neutral_Water_exp [kcal/mol];Gsolv_Neutral_DMSO_TZVPD-Fine [kcal/mol];Gsolv_Neutral_Acetonitrile_TZVPD-Fine [kcal/mol];Gsolv_Neutral_MeOH_TZVPD-Fine [kcal/mol];pka_water;pka_DMSO;pka_Acetonitrile;pka_MeOH;Synonyms
60;butan-2-ol;-1;C4H10O;74.12;CCC(C)O;6568;369.4;-89.1;;;;-4.7;-5.9;-5.3;-6.3;17.6;;;;"['2-Butanol', 'Butan-2-ol', 'sec-Butanol', 'SEC-BUTYL ALCOHOL', '78-92-2', '2-Hydroxybutane', '2-Butyl alcohol', 'Butylene hydrate', 's-Butyl alcohol', '1-Methyl-1-propanol', '1-Methylpropyl alcohol', 's-Butanol', 'Methyl ethyl carbinol', 'Ethyl methyl carbinol', 'Butanol secondaire', 'Butanol-2', '1-Methyl propanol', 'Methylethylcarbinol', 'Ethylmethyl carbinol', 'Alcool butylique secondaire', 'CCS 301', 'Butanol secondaire [French]', 'MFCD00004569', 'NSC 25499', 'n-Butan-2-ol', '15892-23-6', 'sec-C4H9OH', 'Alcool butylique secondaire [French]', 'S.B.A.', 'CHEBI:35687', '2-Butanol, anhydrous', 'Butanol secondaire (French)', 'Methylethyl carbinol', 'Butyl alcohol, sec-', '2-Butanol (natural)', 'Caswell No. 119C', 'UNII-0TUL3ENK62', '(+/-)-2-Butanol', 'Alcool butylique secondaire (French)', '2-Butanol, (R)-', 'HSDB 674', '(1)-Butan-2-ol', 'EINECS 201-158-5', 'EINECS 240-029-8', 'EPA Pesticide Chemical Code 001502', 'BRN 0773649', 'sec-Butyl Alcohol, (R)-(-)-', 'ethyl ethanol', 's-Butylalkohol', 'AI3-24189', '0TUL3ENK62', 'sec.-butanol', 'secondary butanol', 'D-sec-Butanol', 'L-sec-Butanol', 'DL-sec-Butanol', 'rac-2-butanol', 'butane-2-ol', 'methylpropan-2-ol', 'sec-BuOH', 'rac-butan-2-ol', '2-deuteriooxybutane', 'sec. butyl alcohol', 'sec.-butyl alcohol', 'DL-2-Butanol', 's-BuOH', 'Butane, 2-hydroxy-', 'S(+)-2-butanol', 'secondary butyl alcohol', '2-Butanol, CP grade', 'Secondary Buryl Alcohol', 'ACMC-209joc', '2-Butanol, (S)-', '2-Butanol, 99%', '(+/-)butan-2-ol', '3-BUTANOL', '.+/-.-2-Butanol', 'ACMC-1BLM4', 'DSSTox_CID_1762', 'ACMC-209d1k', '2-Butanol, >=99%', 'EC 201-158-5', 'DSSTox_RID_76312', 'DSSTox_GSID_21762', '2-01-00-00400 (Beilstein Handbook Reference)', 'CHEMBL45462', '2-Butanol, analytical standard', 'WLN: QY2&1', 'CLOBENPROPITDIHYDROBROMIDE', 'ASTM D3606 2-Butanol IS', 'DTXSID9021762', '2-Butanol, (.+/-.)-', 'BDBM36157', '2-Butanol, anhydrous, 99.5%', '2-Butanol, p.a., 99.0%', 'AMY11001', 'NSC25499', 'Tox21_201092', 'BBL011463', 'NSC-25499', 'STL146575', 'AKOS000249480', 'AKOS016352938', '2-Butanol, ReagentPlus(R), >=99%', 'MCULE-5005120003', 'VC30223', 'CAS-78-92-2', 'Butyl Alcohol (sec)- Reagent Grade ACS', 'NCGC00090743-01', 'NCGC00090743-02', 'NCGC00258644-01', '2-Butanol 100 microg/mL in Acetonitrile', '2-Butanol, SAJ first grade, >=98.0%', '2-Butanol, JIS special grade, >=99.0%', 'DB-016763', 'B0705', 'FT-0605046', 'FT-0605252', 'FT-0605313', '28288-EP2272849A1', '28288-EP2292616A1', '28288-EP2314577A1', '28288-EP2374780A1', '28288-EP2374781A1', '36684-EP2270000A1', '36684-EP2275411A2', '36684-EP2275414A1', '36684-EP2275423A1', '36684-EP2281821A1', '36684-EP2287152A2', '36684-EP2295414A1', '36684-EP2298313A1', '36684-EP2298755A1', '36684-EP2298763A1', '36684-EP2301919A1', '36684-EP2305033A1', '36684-EP2305254A1', '36684-EP2305625A1', '36684-EP2305676A1', '36684-EP2308838A1', '36684-EP2308857A1', '36684-EP2308866A1', '36684-EP2311801A1', '36684-EP2311802A1', '36684-EP2311803A1', '36684-EP2371814A1', '36684-EP2374783A1', '36684-EP2377841A1', '36684-EP2380568A1', '92815-EP2305649A1', '153529-EP2284157A1', '153529-EP2287152A2', 'Q209332', '2DD92146-ED3E-446F-8B14-A7DB1F14EF8C', '2-Butanol, puriss. p.a., Reag. Ph. Eur., >=99.5% (GC)', '2-Butanol, United States Pharmacopeia (USP) Reference Standard', '2-Butanol, Pharmaceutical Secondary Standard; Certified Reference Material']"
61;2-methylpropan-2-ol;-1;C4H10O;74.12;CC(C)(C)O;6386;370.3;-87.6;-71.2;;;-4.5;-5.8;-5.2;-6.3;19.2;32.2;;;['tert-Butanol', 'tert-Butyl alcohol', '2-Methylpropan-2-ol', '2-Methyl-2-propanol', '75-65-0', 't-Butanol', '1,1-Dimethylethanol', 'Trimethylcarbinol', 'T-BUTYL ALCOHOL', 't-Butyl hydroxide', 'Trimethyl methanol', '2-Propanol, 2-methyl-', 'Tertiary-Butyl Alcohol', 'Trimethylmethanol', 'tert-butylalcohol', 'Butanol tertiaire', 'Trimethyl carbinol', 'Dimethylethanol', 'tertiary-Butanol', 'Alcool butylique tertiaire', 'tert- butyl alcohol', 'Methanol, trimethyl-', 'tertiary Butyl Alcohol', 'tert.-butanol', 't-BuOH', 't-butylalcohol', 'tertiary butanol', 'NCI-C55367', 't-Butyl alchohol', 'tBuOH', 'tert-BuOH', 'UNII-MD83SFE959', 'tert-Butyl hydroxide', '2-Methyl n-propan-2-ol', 'MD83SFE959', 'CHEBI:45895', 'MFCD00004464', 'Arconol', 'tert-Butyl alcohol, anhydrous', 'Caswell No. 124A', 'tert Butanol', 'Butanol tertiaire [French]', 'tert Butyl Alcohol', 'HSDB 50', 'TBU', '2-Methylpropanol-2', 'Alcohol, tert-Butyl', 'CCRIS 4755', 'Alcool butylique tertiaire [French]', 'EINECS 200-889-7', 'BRN 0906698', 'terbutanol', 'tertbutanol', 'tertiarybutanol', 'ter-butanol', 'tert.butanol', 't-Butylalkohol', 't-butyl-alcohol', 'terbutyl alcohol', 'AI3-01288', 'tert -butanol', 'tertbutyl alcohol', 'tert. Butanol', 't- butanol', 'HOtBu', 'ter-butyl alcohol', 'tert-buyl alcohol', 'tert-butyl-alcohol', 'tert.-butylalcohol', 'tert.butyl alcohol', 'Trimethyl-Methanol', 'tert-Butanol, AR', '2methyl-2-propanol', 'tert. butyl alcohol', 'HOt-Bu', 'Tert.-butyl alcohol', 'tert-C4H9OH', '2-methyl,2-propanol', 'Methyl-2 propanol-2', 't-Bu-OH', '1,1-dimethyl ethanol', '2-methyl propan-2-ol', '2-methyl-propan-2-ol', 'ACMC-209ozd', 'tert-Butanol HPLC grade', 'tert-Butanol ACS reagent', 'Ethanol, 1,1-Dimethyl-', '2-methyl-2-propyl alcohol', 'EC 200-889-7', '(CH3)3COH', '4-01-00-01609 (Beilstein Handbook Reference)', 'HOC(CH3)3', 'CHEMBL16502', 'Tertiary butyl alcohol reagent', 'DTXSID8020204', 'tert-Butanol, >=99% (GC)', 'tert-Butanol, analytical standard', 'tert-Butanol, p.a., 99.0%', 'AMY11058', 'ZINC1680021', 'STL282741', 'tert-Butanol, anhydrous, >=99.5%', 'AKOS009029221', 'DB03900', 'MCULE-2451492095', 'tert-Butanol, for HPLC, >=99.5%', 'tert-Butanol, technical grade, 95.0%', 'tert-Butanol, ACS reagent, >=99.0%', '25-65-0', 'BP-20656', 'Butyl Alcohol (tert)- Reagent Grade ACS', 'tert-Butanol 100 microg/mL in Acetonitrile', 'tert-Butanol, SAJ first grade, >=98.0%', 'B0706', 'FT-0688093', 'tert-Butanol, TEBOL(R) 99, >=99.3%', 'tert-Butanol, SAJ special grade, >=99.0%', '6136-EP0930075A1', '6136-EP2270014A1', '6136-EP2274983A1', '6136-EP2286811A1', '6136-EP2287152A2', '6136-EP2289868A1', '6136-EP2292606A1', '6136-EP2295414A1', '6136-EP2295415A1', '6136-EP2298772A1', '6136-EP2305642A2', '6136-EP2305673A1', '6136-EP2308839A1', '6136-EP2311834A1', '6136-EP2374780A1', '6136-EP2374783A1', '6136-EP2377841A1', '6136-EP2380568A1', 'C21389', '10394-EP2269989A1', '10394-EP2269993A1', '10394-EP2270001A1', '10394-EP2270008A1', '10394-EP2270009A1', '10394-EP2270012A1', '10394-EP2270013A1', '10394-EP2272817A1', '10394-EP2272826A1', '10394-EP2275401A1', '10394-EP2275404A1', '10394-EP2277507A1', '10394-EP2277865A1', '10394-EP2284159A1', '10394-EP2284165A1', '10394-EP2286795A1', '10394-EP2287153A1', '10394-EP2287154A1', '10394-EP2287155A1', '10394-EP2287165A2', '10394-EP2287166A2', '10394-EP2289509A2', '10394-EP2289868A1', '10394-EP2289892A1', '10394-EP2292608A1', '10394-EP2292612A2', '10394-EP2292617A1', '10394-EP2292620A2', '10394-EP2295406A1', '10394-EP2295412A1', '10394-EP2295413A1', '10394-EP2295414A1', '10394-EP2295432A1', '10394-EP2298313A1', '10394-EP2298753A1', '10394-EP2298768A1', '10394-EP2301536A1', '10394-EP2301538A1', '10394-EP2301933A1', '10394-EP2305625A1', '10394-EP2305651A1', '10394-EP2305659A1', '10394-EP2305660A1', '10394-EP2305666A1', '10394-EP2305676A1', '10394-EP2305681A1', '10394-EP2308812A2', '10394-EP2308828A2', '10394-EP2308839A1', '10394-EP2308840A1', '10394-EP2308848A1', '10394-EP2308849A1', '10394-EP2308850A1', '10394-EP2308854A1', '10394-EP2308866A1', '10394-EP2308867A2', '10394-EP2308869A1', '10394-EP2308870A2', '10394-EP2308877A1', '10394-EP2311455A1', '10394-EP2311808A1', '10394-EP2311827A1', '10394-EP2311829A1', '10394-EP2311830A1', '10394-EP2311838A1', '10394-EP2314577A1', '10394-EP2314590A1', '10394-EP2315303A1', '10394-EP2316452A1', '10394-EP2377841A1', '10394-EP2380873A1', '15232-EP2272849A1', '15232-EP2275411A2', '15232-EP2275414A1', '15232-EP2277876A1', '15232-EP2280005A1', '15232-EP2281899A2', '15232-EP2284158A1', '15232-EP2284174A1', '15232-EP2286811A1', '15232-EP2289868A1', '15232-EP2289884A1', '15232-EP2292589A1', '15232-EP2292607A2', '15232-EP2292613A1', '15232-EP2292614A1', '15232-EP2292619A1', '15232-EP2292622A1', '15232-EP2295415A1', '15232-EP2295422A2', '15232-EP2298729A1', '15232-EP2298742A1', '15232-EP2298747A1', '15232-EP2298768A1', '15232-EP2298776A1', '15232-EP2301536A1', '15232-EP2301538A1', '15232-EP2301911A1', '15232-EP2301923A1', '15232-EP2305651A1', '15232-EP2305652A2', '15232-EP2305695A2', '15232-EP2305696A2', '15232-EP2305697A2', '15232-EP2305698A2', '15232-EP2308848A1', '15232-EP2308854A1', '15232-EP2311455A1', '15232-EP2311796A1', '15232-EP2311797A1', '15232-EP2311798A1', '15232-EP2311799A1', '15232-EP2311830A1', '15232-EP2314295A1', '15232-EP2314577A1', '15232-EP2315303A1', '15232-EP2316832A1', '15232-EP2316833A1', '15232-EP2374780A1', '15232-EP2374781A1', '15232-EP2374790A1', '15245-EP2272825A2', '15245-EP2272839A1', '15245-EP2272840A1', '15245-EP2275102A1', '15245-EP2277848A1', '15245-EP2286811A1', '15245-EP2289894A2', '15245-EP2292612A2', '15245-EP2301536A1', '15245-EP2301538A1', '15245-EP2301923A1', '15245-EP2305652A2', '15245-EP2305684A1', '15245-EP2308861A1', '15245-EP2308867A2', '15245-EP2308870A2', '15245-EP2311455A1', '15245-EP2311808A1', '15245-EP2316832A1', '15245-EP2316833A1', '18809-EP2269986A1', '18809-EP2275414A1', '18809-EP2298763A1', '18809-EP2298767A1', '18809-EP2301933A1', '18809-EP2305625A1', '18809-EP2308838A1', '18809-EP2311827A1', '18809-EP2314576A1', '18809-EP2314587A1', '19238-EP2277507A1', '19238-EP2286795A1', '19238-EP2295418A1', '19238-EP2298773A1', '19238-EP2305033A1', '19238-EP2308866A1', '19238-EP2311801A1', '19238-EP2311802A1', '19238-EP2311803A1', '19238-EP2314576A1', '19238-EP2371814A1', '91826-EP2269986A1', '91826-EP2289965A1', '91826-EP2292630A1', '91826-EP2295415A1', '91826-EP2298828A1', '91826-EP2305649A1', '91826-EP2305668A1', '91826-EP2305672A1', '91826-EP2371803A1', '91826-EP2377843A1', '100040-EP2272839A1', '100040-EP2272840A1', '100040-EP2301923A1', '102188-EP2292621A1', '102188-EP2301922A1', '157895-EP2374780A1', '157895-EP2374781A1', 'A838477', 'Q285790', 'J-510082', '2-Methyl-2-propanol, Trimethylcarbinol, tert-Butanol', 'F0001-1901', 'tert-Butanol, puriss. p.a., ACS reagent, >=99.7% (GC)', 'UNII-WB09NY83YA component DKGAVHZHDRPRBM-UHFFFAOYSA-N', '2-Methyl-2-propanol, tert-Butyl alcohol, Trimethyl carbinol', 'tert-Butanol, certified reference material, 5000 mug/mL in methanol']
62;prop-2-en-1-ol;-1;C3H6O;58.08;C=CCO;7858;369.9;-92.8;;;;-5.1;-6.6;-5.5;-6.2;15.5;;;;['ALLYL ALCOHOL', '2-Propen-1-ol', '107-18-6', 'PROP-2-EN-1-OL', 'Vinylcarbinol', '2-Propenyl alcohol', '3-Hydroxypropene', '2-Propenol', 'Allylic alcohol', '1-Propen-3-ol', 'Vinyl carbinol', 'Weed drench', 'Propenyl alcohol', 'Allylalkohol', 'Propenol', '1-Propenol-3', 'Alcool allylique', 'Allilowy alkohol', 'Propen-1-ol-3', 'Shell unkrautted A', 'Alcool allilco', 'Shell Unkrauttod A', 'RCRA waste number P005', '3-Hydroxy-1-propene', 'Allyl al', 'NSC 6526', '2-Propene-1-ol', '1-hydroxy-2-propene', 'UNII-3W678R12M0', 'CHEBI:16605', 'MFCD00002920', '3W678R12M0', 'DSSTox_CID_44', 'DSSTox_RID_75335', 'DSSTox_GSID_20044', 'Allyl alcohol, >=98.5%', 'Allylalkohol [German]', 'Caswell No. 026', 'Alcool allilco [Italian]', 'Alcool allylique [French]', 'Allilowy alkohol [Polish]', 'CAS-107-18-6', 'CCRIS 747', 'HSDB 192', 'EINECS 203-470-7', 'UN1098', 'RCRA waste no. P005', 'EPA Pesticide Chemical Code 068401', 'Orvinylcarbinol', 'Aaalcool allilco', 'AI3-14312', 'AllOH', 'Propenol-3', '2-propen-1ol', '1-Propenol-3-ol', 'prop-2-en-I-ol', 'ALLYL-ALCOHOL', 'CH2=CHCH2OH', 'Allyl alcohol, >=99%', 'EC 203-470-7', 'WLN: Q2U1', 'CHEMBL234926', 'DTXSID8020044', 'NSC6526', 'Allyl alcohol, analytical standard', 'ZINC901213', 'BCP26846', 'NSC-6526', 'Tox21_200200', 'Tox21_303507', 'STL185566', 'AKOS000118796', 'Allyl alcohol [UN1098]  [Poison]', 'MCULE-2145308838', 'UN 1098', 'NCGC00091428-01', 'NCGC00091428-02', 'NCGC00091428-03', 'NCGC00257474-01', 'NCGC00257754-01', '62309-52-8', 'Allyl Alcohol 500 microg/mL in Methanol', 'BP-21152', 'A0218', '6025-EP0930075A1', '6025-EP2274983A1', '6025-EP2275401A1', '6025-EP2275411A2', '6025-EP2275417A2', '6025-EP2284157A1', '6025-EP2284162A2', '6025-EP2284163A2', '6025-EP2305684A1', '6025-EP2308861A1', '6025-EP2308877A1', '6025-EP2311815A1', '6025-EP2311823A1', '6025-EP2374783A1', '6025-EP2377841A1', '6025-EP2380568A1', 'C02001', 'Q414553', 'F0001-0139', 'Z1259086992']