Number;IUPAC_name;Charge;Molecular Formula;Molecular Weight [g/mol];Isomeric SMILES;Pubchem CID;GasPhaseAcidity_B2PLYP//DLPNO-CCSD(T) [kcal/mol];GSolv_Ion_Water [kcal/mol];GSolv_Ion_DMSO [kcal/mol];GSolv_Ion_Acetonitrile [kcal/mol];GSolv_Ion_MeOH [kcal/mol];Gsolv_Neutral_Water_exp [kcal/mol];Gsolv_Neutral_DMSO_TZVPD-Fine [kcal/mol];Gsolv_Neutral_Acetonitrile_TZVPD-Fine [kcal/mol];Gsolv_Neutral_MeOH_TZVPD-Fine [kcal/mol];pka_water;pka_DMSO;pka_Acetonitrile;pka_MeOH;Synonyms
183;benzenesulfonamide;-1;C6H7NO2S;157.19;C1=CC=C(C=C1)S(=O)(=O)N;7370;;;;;;;-16.8;-13.9;-14.3;;16.1;24.6;;['BENZENESULFONAMIDE', '98-10-2', 'Benzenesulphonamide', 'Benzosulfonamide', 'phenyl sulfonamide', 'benzene sulfonamide', 'phenylsulfonamide', 'CHEMBL27601', 'MFCD00007930', 'Benzolsulfonamide', 'M and B 7973', 'NSC 5341', 'EINECS 202-637-1', 'BRN 1100566', 'benzolsulfonamid', 'benzensulfonamide', 'AI3-04492', 'phenylsulphonamide', '2wej', '4jsa', '4jsz', 'benzene-sulfonamide', 'benzene sulphonamide', '1-benzenesulfonamide', 'Benzenesulfonyl amine', 'AmosulalolHyorochloride', '1202865-50-6', 'WLN: ZSWR', 'benzenesulfonic acid amide', 'SCHEMBL729', 'EC 202-637-1', 'Benzenesulfonamide-[13C6]', 'Benzenesulfonamide, >=98%', '4-11-00-00050 (Beilstein Handbook Reference)', 'ACMC-20978z', 'DTXSID1059159', 'BDBM12414', 'NSC5341', 'ZINC330150', 'AMY37118', 'NSC-5341', 'BBL012577', 's4725', 'STK325729', 'AKOS000144235', 'CCG-266270', 'CS-W020081', 'EBD2219953', 'MCULE-2537214249', 'NCGC00340323-01', 'DB-057708', '827-EP2272843A1', '827-EP2281817A1', '827-EP2287165A2', '827-EP2295433A2', '827-EP2305695A2', '827-EP2305696A2', '827-EP2305697A2', '827-EP2305698A2', '827-EP2308872A1', '827-EP2314583A1', '827-EP2316829A1', '827-EP2374792A1', 'B0028', 'FT-0622647', 'EN300-15718', '4C-038', '9612-EP2308872A1', '9612-EP2316829A1', '79248-EP2305695A2', '79248-EP2305696A2', '79248-EP2305697A2', '79248-EP2305698A2', 'AB01314414-03', 'A845808', 'AB-131/40262287', 'Benzenesulfonamide, Vetec(TM) reagent grade, 98%', 'Q818513', 'W-100094', 'F1905-6988']
184;1-phenylpropan-2-one;-1;C9H10O;134.17;CC(=O)CC1=CC=CC=C1;7678;;;;;;;-8.0;-8.7;-8.2;;19.9;;;['Phenylacetone', '1-phenylpropan-2-one', '1-Phenyl-2-propanone', '103-79-7', 'Benzyl methyl ketone', 'Methyl benzyl ketone', 'Phenyl-2-propanone', '1-Phenylacetone', '2-Propanone, 1-phenyl-', '3-Phenyl-2-propanone', 'Phenylmethyl methyl ketone', 'phenyl acetone', '1-phenyl-propan-2-one', 'UNII-O7IZH10V9Y', 'O7IZH10V9Y', 'CHEMBL3800510', '136675-26-8', 'NSC 9827', 'Phenylacetone, 99%', 'EINECS 203-144-4', '(phenyl)acetone', 'AI3-02938', 'DEA No. 8501', 'methylbenzyl ketone', 'phenyl 2-propanone', '1-Phenylpropane-2-one', 'SCHEMBL43943', 'ghl.PD_Mitscher_leg0.660', 'DTXSID1059280', 'SCHEMBL13341529', 'CHEBI:52052', 'HSDB 8385', 'NSC9827', 'Phenylacetone, analytical standard', 'BCP22277', 'NSC-9827', 'ZINC1700205', 'BBL027835', 'BDBM50167968', 'STL373560', 'AKOS004905656', 'MCULE-2102027204', 'FT-0673719', 'A800807', 'Q418831', 'F0000-0002', 'Dextroamphetamine Related Compound B, United States Pharmacopeia (USP) Reference Standard']
185;2-bromoacetic acid;-1;C2H3BrO2;138.95;C(C(=O)O)Br;6227;327.7;;;;-65.5;;-12.0;-9.9;-9.9;;;;8.1;['BROMOACETIC ACID', '2-Bromoacetic acid', '79-08-3', 'Monobromoacetic acid', 'Acetic acid, bromo-', 'Bromoethanoic acid', 'To NTU', 'Bromoacetate ion', 'Acide bromacetique', 'Acetic acid, 2-bromo-', '2-Bromoacetyl Group', '2-bromoethanoic acid', 'Bromo-acetic acid', 'Monobromessigsaeure', 'Kyselina bromoctova', '.alpha.-Bromoacetic acid', 'NSC 141', 'UNII-2B3HS32431', 'Bromoacetic acid, solid', 'CHEMBL60851', 'MFCD00002678', '2B3HS32431', 'Caswell No. 112A', 'Acide bromacetique [French]', 'Kyselina bromoctova [Czech]', 'Monobromessigsaeure [German]', 'CCRIS 7886', 'Acetic acid, bromo-, (solution)', 'EINECS 201-175-8', 'C2H3BrO2', 'UN1938', 'EPA Pesticide Chemical Code 008702', 'BRN 0506167', 'bromacetic acid', 'AI3-15301', 'HSDB 7627', 'bromo acetic acid', 'monobromacetic acid', 'BXA', 'Carboxymethyl bromide', '2-bromo acetic acid', '2-bromo-acetic acid', 'CH2BrCOOH', 'UN 1938', '2-bromanylethanoic acid', 'Bromoacetic acid solution', 'Acetic acid, (solution)', 'Bromoacetic acid, solution', 'DSSTox_CID_1495', '.alpha.-Bromoethanoic acid', 'WLN: QV1E', 'EC 201-175-8', 'DSSTox_RID_76186', 'DSSTox_GSID_21495', 'SCHEMBL23032', 'BROMOACETIC-13C2ACID', '4-02-00-00526 (Beilstein Handbook Reference)', 'Bromoacetic acid, solution [UN1938] [Corrosive]', 'ACMC-20977a', 'NSC141', 'DTXSID7021495', 'NSC-141', 'STR00860', 'ZINC3860231', 'Tox21_200657', 'BDBM50119693', 'Bromoacetic acid, analytical standard', 'LMFA01090074', 'STL481895', 'AKOS000118919', 'Bromoacetic acid, reagent grade, 97%', 'DB02198', 'MCULE-1503716137', 'CAS-79-08-3', 'NCGC00091467-01', 'NCGC00091467-02', 'NCGC00258211-01', 'BC003721', 'BP-20544', 'S664', 'Bromoacetic acid solution, 1.0 M in DMF', 'Bromoacetic acid, purum, >=98.0% (T)', 'AB0007487', 'Bromoacetic acid, ReagentPlus(R), >=99%', '683-EP2289868A1', '683-EP2289886A1', '683-EP2308839A1', '683-EP2308867A2', '683-EP2308870A2', '683-EP2308874A1', '683-EP2311818A1', 'B0531', 'FT-0648951', 'FT-0700929', 'FT-0770735', 'FT-0772262', 'Bromoacetic acid, ReagentPlus(R), >=99.0%', 'Bromoacetic acid, solid [UN1938]  [Corrosive]', 'A839576', 'Bromoacetic acid solution, 1 M in dichloromethane', 'Q421323', 'J-519938', 'F2191-0223', 'Z1270326274', 'Bromoacetic acid 1000 microg/mL in Methyl-tert-butyl ether', 'Bromoacetic acid solution, certified reference material, 1000 mug/mL in methyl tert-butyl ether']
186;butanoic acid;-1;C4H8O2;88.11;CCCC(=O)O;264;338.8;;;-54.4;-72.6;;-9.3;-7.7;-8.1;;;22.7;9.7;['butyric acid', 'butanoic acid', '107-92-6', 'n-Butyric acid', 'n-Butanoic acid', 'propylformic acid', 'ethylacetic acid', 'Butanic acid', '1-propanecarboxylic acid', '1-Butyric acid', 'Buttersaeure', 'butanoate', 'Butyric acid (natural)', 'Kyselina maselna', 'Propanecarboxylic acid', 'Buttersaeure [German]', '1-butanoic acid', 'FEMA Number 2221', 'Kyselina maselna [Czech]', 'FEMA No. 2221', 'CCRIS 6552', 'HSDB 940', 'butoic acid', '2-butanoate', 'NSC 8415', 'UNII-40UIR9Q29H', 'MFCD00002814', 'UN2820', 'AI3-15306', 'C4:0', 'CH3-[CH2]2-COOH', '40UIR9Q29H', 'CHEBI:30772', 'NSC8415', 'butanate', 'propylformate', 'Butyrate sodium', '67254-79-9', '1-butanoate', 'propanecarboxylate', '1-butyrate', 'Butyric acid [UN2820]  [Corrosive]', 'Sodium n-butyrate', '1-propanecarboxylate', 'DSSTox_CID_1515', 'DSSTox_RID_76192', 'DSSTox_GSID_21515', 'BUA', 'acide butyrique', 'Fatty acids', 'CAS-107-92-6', 'Butyric Acid (Normal)', 'EINECS 203-532-3', 'BRN 0906770', 'sodium-butyrate', 'acide butanoique', 'Honey robber', 'ethyl acetic acid', '1ugp', '3umq', 'butanoic acid, 4', 'Nat. Butyric Acid', 'Fatty Acid,Vegetable', 'TNFa + NaBut', 'Butyrate, sodium salt', 'Butyric acid [UN2820] [Corrosive]', 'BUTYRIC_ACID', 'n-C3H7COOH', 'TNFa + Sodium Butyrate', 'Butyric acid, >=99%', 'bmse000402', 'EC 203-532-3', 'NATURAL BUTYRIC ACID', 'NCIMech_000707', 'WLN: QV3', 'ACMC-1C12J', '4-02-00-00779 (Beilstein Handbook Reference)', 'CHEMBL14227', 'Butyric acid, >=99%, FG', 'GTPL1059', 'DTXSID3095692', 'DTXSID8021515', 'BDBM26109', 'Butyric acid, analytical standard', 'Bio1_000444', 'Bio1_000933', 'Bio1_001422', 'N-butyric acid, ethyl acetic acid', 'ZINC895132', 'NSC-8415', 'STR06290', 'Tox21_202382', 'Tox21_300164', 'CCG-35836', 'LMFA01010004', 'STL169349', 'AKOS000118961', 'DB03568', 'MCULE-4116382006', 'UN 2820', 'NCGC00247914-01', 'NCGC00247914-02', 'NCGC00247914-05', 'NCGC00253919-01', 'NCGC00259931-01', 'BP-21420', 'NCI60_001424', 'Butyric acid, natural, >=99%, FCC, FG', 'B0754', 'FT-0623295', 'FT-0686717', 'V2319', 'Butyric acid 1000 microg/mL in Acetonitrile', 'Butyric acid, SAJ special grade, >=99.5%', 'C00246', '24113-EP2272827A1', '24113-EP2275401A1', '24113-EP2281819A1', '24113-EP2284146A2', '24113-EP2284147A2', '24113-EP2292611A1', '24113-EP2292619A1', '24113-EP2298763A1', '24113-EP2298772A1', '24113-EP2305633A1', '24113-EP2305659A1', '24113-EP2305808A1', '24113-EP2308839A1', '24113-EP2311810A1', '24113-EP2311818A1', '24113-EP2311825A1', '24113-EP2311840A1', '24113-EP2314590A1', '24113-EP2380661A2', '31560-EP2292597A1', '31560-EP2295053A1', '31560-EP2308858A1', '31560-EP2311816A1', '31560-EP2311817A1', '81544-EP2275407A1', '81544-EP2305687A1', '81544-EP2305808A1', '81544-EP2305825A1', 'Q193213', 'W-108732', 'BRD-K05878375-236-02-4', '9B27B3D0-9643-40EC-9A5F-7CA1A6ED7F9F', 'F2191-0094', 'Z955123634', 'butanoic acid, butanic acid, n-butyric acid, ethylacetic acid, propylformic acid, 1-propanecarboxylic acid']
187;9H-carbazole;-1;C12H9N;167.21;C1=CC=C2C(=C1)C3=CC=CC=C3N2;6854;;;;;;;-13.7;-12.2;-12.2;;19.9;;;"['CARBAZOLE', '9H-Carbazole', '86-74-8', 'Dibenzopyrrole', 'Diphenylenimine', '9-Azafluorene', 'Diphenylenimide', 'Diphenyleneimine', 'Dibenzo[b,d]pyrrole', 'USAF EK-600', 'Dibenzo(b,d)pyrrole', 'NSC 3498', 'UNII-0P2197HHHN', 'SKF 20091', '9H-Carbazole, homopolymer', '0P2197HHHN', 'CHEBI:27543', 'MFCD00004960', 'DSSTox_CID_248', 'DSSTox_RID_75462', 'DSSTox_GSID_20248', 'CAS-86-74-8', '51555-21-6', 'SMR000112232', 'CCRIS 121', 'HSDB 2164', 'EINECS 201-696-0', 'para-carbazole', 'AI3-00096', '9H carbazole', '9-H-carbazole', '9CA', 'Carbazole, 96%', 'Chlorophenesin carbamate', 'ACMC-209qbc', '9H-carbazole-d8 (9ci)', 'bmse000666', 'EC 201-696-0', 'SCHEMBL7650', 'MLS001066363', 'MLS002415721', 'Carbazole, analytical standard', 'Carbazole, extra pure, 98%', 'WLN: T B656 HMJ', 'Carbazole, >=95% (GC)', 'CHEMBL243580', 'SCHEMBL6026794', 'DTXSID4020248', 'NSC3498', 'HMS2267P20', 'NSC-3498', 'STR04484', 'Tox21_201703', 'Tox21_302847', 'STK671343', 'AKOS000119129', 'ZINC100009863', 'ACN-051079', 'AT24454', 'Carbazole 1000 microg/mL in Methanol', 'DB07301', 'LS41657', 'MCULE-7610805198', 'PS-4072', 'NCGC00091233-01', 'NCGC00091233-02', 'NCGC00091233-03', 'NCGC00256533-01', 'NCGC00259252-01', 'K546', 'DB-038198', 'DS-017121', 'FT-0623455', 'Carbazole, VETRANAL(TM), analytical standard', 'C08060', 'A841825', 'Q424003', 'Q-200795', 'F0001-2148', 'Z1250100640', 'Carbazole solution, certified reference material, 2000 mug/mL in methylene chloride', 'Carprofen Related Compound A, United States Pharmacopeia (USP) Reference Standard', 'Carbazole(Carprofen Related Compound A), Pharmaceutical Secondary Standard; Certified Reference Material']"
188;2-cyanoacetic acid;-1;C3H3NO2;85.06;C(C#N)C(=O)O;9740;322.6;;;-49.6;-63.8;;-15.0;-12.7;-12.5;;;18;7.5;['CYANOACETIC ACID', '372-09-8', '2-Cyanoacetic acid', 'Acetic acid, cyano-', 'Malonic mononitrile', 'Acide cyanacetique', 'Cyanessigsaeure', 'Cyanoaceticacid', 'Monocyanoacetic acid', 'Malonic acid mononitrile', 'USAF KF-17', 'cyanoethanoic acid', 'Acetic acid, 2-cyano-', 'Kyselina kyanoctova', 'NSC 5571', 'UNII-QZT550H2Y9', 'MFCD00002677', 'QZT550H2Y9', 'CHEBI:51889', 'DSSTox_CID_7149', 'DSSTox_RID_78326', 'DSSTox_GSID_27149', 'Cyanessigsaeure [German]', 'Acide cyanacetique [French]', 'Kyselina kyanoctova [Czech]', 'CAS-372-09-8', 'HSDB 272', 'EINECS 206-743-9', 'BRN 0506325', 'C3H3NO2', 'cyanacetic acid', 'AI3-15026', 'cyano acetic acid', 'cyano-acetic acid', 'alphacyanoacetic acid', '2-cyano-acetic acid', 'alpha cyanoacetic acid', 'alpha-cyanoacetic acid', 'NCCH2COOH', 'ACMC-209irh', 'Cyanoacetic acid, 99%', 'WLN: QV1CN', 'EC 206-743-9', 'Cyanoacetic acid, >=99%', '4-02-00-01888 (Beilstein Handbook Reference)', 'CHEMBL3185860', 'DTXSID0027149', 'NSC5571', 'NSC-5571', 'STR00053', 'ZINC1687016', 'Tox21_201645', 'Tox21_303155', 'BBL011504', 'STL146616', 'AKOS000119706', 'CM10060', 'MCULE-3440765061', 'NCGC00249091-01', 'NCGC00257182-01', 'NCGC00259194-01', 'O603', 'FT-0624125', 'P20002', '31584-EP2284159A1', '31584-EP2292228A1', '31584-EP2298768A1', '31584-EP2305684A1', '31584-EP2308858A1', '31584-EP2309584A1', '31584-EP2311816A1', '31584-EP2311817A1', '31584-EP2371813A1', 'J-200091', 'Q1146963', 'F2191-0053', 'Z1270326271']
189;cyclobutanecarboxylic acid;-1;C5H8O2;100.12;C1CC(C1)C(=O)O;19494;338.2;;;;-72.3;;-9.6;-8.1;-8.6;;;;9.9;"['CYCLOBUTANECARBOXYLIC ACID', '3721-95-7', 'Cyclobutylcarboxylic acid', 'Cyclo-butyl formic acid', 'cyclobutane carboxylic acid', 'UNII-0RDJ7C51O0', 'MFCD00001323', '0RDJ7C51O0', 'NSC 4535', 'EINECS 223-072-7', 'BRN 1816777', 'ACMC-1CNQB', 'cyclobutan carboxylic acid', 'cyclobutyl carboxylic acid', 'cyclobutancecarboxylic acid', 'cyclobutane-carboxylic acid', 'cyclobutancarbons&#xe4;ure', '4-cyclobutanecarboxylic acid', 'DSSTox_CID_31514', 'DSSTox_RID_97399', 'DSSTox_GSID_57725', 'SCHEMBL17470', '4-09-00-00006 (Beilstein Handbook Reference)', 'CHEMBL3560137', 'DTXSID3057725', 'AMCB00076', 'Cyclobutanecarboxylic acid, 98%', 'NSC4535', 'ACT03330', 'EBD10232', 'NSC-4535', 'ZINC1673440', 'Tox21_113791', 'BBL018902', 'QC-395', 'STK802616', 'AKOS000119716', 'AM62800', 'CM11089', 'CS-W011325', 'GS-3206', 'MCULE-2498509888', 'SB40646', 'VZ31605', 'NCGC00253667-01', 'AC-27351', 'CAS-3721-95-7', 'DB-016112', 'FT-0624149', '58450-EP2272841A1', '58450-EP2275401A1', '58450-EP2305682A1', '58450-EP2308879A1', 'AJ-190/40848564', 'SR-01000945129', 'SR-01000945129-1', 'W-106559', 'Q27237141', 'F2191-0054', 'Z1270212509']"
190;cyclohexanecarboxylic acid;-1;C7H12O2;128.17;C1CCC(CC1)C(=O)O;7413;338.0;;;-54.2;-72.9;;-10.3;-9.0;-9.6;;;23.3;10;"['CYCLOHEXANECARBOXYLIC ACID', '98-89-5', 'Hexahydrobenzoic acid', 'Cyclohexanoic acid', 'Cyclohexylcarboxylic acid', 'Carboxycyclohexane', 'Benzoic acid, hexahydro-', 'Cyclohexylmethanoic acid', 'Cyclohexylformic acid', 'Cyclohexancarbonsaeure', 'Cyclohexane-1-carboxylate', 'Cyclohexane-carboxylic acid', 'UNII-H9VKD9VL18', 'cyclohexyl carboxylic acid', '1-cyclohexanecarboxylic acid', 'H9VKD9VL18', 'MFCD00001461', 'Cyclohexanecarboxylic acid, lead salt', 'CYCLOHEXANE CARBOXYLIC ACID', 'Cyclohexanecarboxylic acid, lead salt (1:?)', '50825-29-1', '26764-36-3', 'FEMA No. 3531', 'NSC 452', 'EINECS 202-711-3', 'EPA Pesticide Chemical Code 112603', 'BRN 0970529', 'naphthenoic acid', 'AI3-01854', 'EINECS 256-790-4', 'hexahydro-benzoic acid', 'ACMC-1BSLF', 'cyclohexane caboxylic acid', 'cyclo-hexanecarboxylic acid', 'cycloh exanecarboxylic acid', 'cyclohexancarbons&#xe4;ure', 'bmse000546', 'bmse000603', '4-Cyclohexylcarboxylic acid', 'EC 202-711-3', '4-cyclohexanecarboxylic acid', 'SCHEMBL6501', '1-cyclohexyl-carboxylic acid', 'SAMPL4, O6', 'cyclohexane-1-carboxylic acid', 'cyclohexane-4-carboxylic acid', '4-09-00-00016 (Beilstein Handbook Reference)', 'NSC452', 'DTXSID8059180', 'CHEBI:36096', 'Cyclohexanecarboxylic acid, 98%', 'FEMA 3531', 'NZNMSOFKMUBTKW-UHFFFAOYSA-', 'NSC-452', '7549-42-0 (calcium salt)', 'BDBM197305', 'CS-D1501', 'HY-Y1373', 'STR02844', 'ANGC-98-89-5', 's6279', 'STL168520', 'ZINC12358763', 'AKOS000119768', 'L-N-METHYLEPHEDRINEHYDROCHLORIDE', 'MCULE-2193918964', 'SB40629', 'Cyclohexanecarboxylic acid, >=98%, FG', 'DB-016117', 'AM20070525', 'FT-0624186', 'Cyclohexanecarboxylic acid, analytical standard', 'C09822', 'P17799', '45997-EP2269988A2', '45997-EP2270008A1', '45997-EP2275401A1', '45997-EP2275413A1', '45997-EP2277898A2', '45997-EP2287156A1', '45997-EP2289887A2', '45997-EP2289888A2', '45997-EP2292596A2', '45997-EP2292597A1', '45997-EP2292617A1', '45997-EP2301940A1', '45997-EP2305250A1', '45997-EP2311807A1', 'A845921', 'Cyclohexanecarboxylic acid, purum, >=97.0% (GC)', 'J-520156', 'Q5198713', 'F2191-0111', 'Z966690612', '3,4-dichloro-N-methyl-N-[(1R,2R)-2-pyrrolidin-1-ylcyclohexyl]benzamide', 'Cyclohexanecarboxylic acid, United States Pharmacopeia (USP) Reference Standard']"
191;cyclopenta-1,3-diene;-1;C5H6;66.1;C1C=CC=C1;7612;348.8;;-66.6;;;;-3.4;-3.8;-3.4;;18;;;['Cyclopentadiene', '1,3-CYCLOPENTADIENE', 'cyclopenta-1,3-diene', '542-92-7', 'Pyropentylene', 'Pentole', 'R-Pentine', 'UNII-5DFH9434HF', '5DFH9434HF', '26912-33-4', 'CHEBI:30664', 'HSDB 2514', 'EINECS 208-835-4', 'cyclopentadien', 'cyclo pentadiene', 'cyclo-pentadiene', 'DSSTox_CID_7191', 'EC 208-835-4', 'DSSTox_RID_78342', 'DSSTox_GSID_27191', 'ghl.PD_Mitscher_leg0.1205', 'CHEMBL3188826', 'DTXSID0027191', 'Tox21_302134', 'ZINC43411910', 'AKOS025295445', 'AT31522', 'NCGC00255341-01', 'CAS-542-92-7', 'DB-013019', 'FT-0656719', 'FT-0659414', '1.3-cyclopentadiene pound Dimer form pound(c)', '13737-EP2269990A1', '13737-EP2276085A1', '13737-EP2281818A1', '13737-EP2292586A2', '13737-EP2292611A1', '13737-EP2295421A1', '13737-EP2295503A1', '13737-EP2298731A1', '13737-EP2298755A1', '13737-EP2298772A1', '13737-EP2298774A1', '13737-EP2301627A1', '13737-EP2301921A1', '13737-EP2301926A1', '13737-EP2305671A1', '13737-EP2308510A1', '13737-EP2308562A2', '13737-EP2309584A1', '13737-EP2315502A1', '13737-EP2316836A1', '13737-EP2371810A1', '13737-EP2371811A2', '13737-EP2371812A1', '13737-EP2372804A1', '13737-EP2378585A1', '27405-EP2298767A1', '27405-EP2314587A1', '542C927', 'A818675', 'Q424390', 'Q2209035']
192;cyclopropanecarboxylic acid;-1;C4H6O2;86.09;C1CC1C(=O)O;15655;338.4;;;;-72.5;;-9.7;-8.0;-8.4;;;;9.8;['CYCLOPROPANECARBOXYLIC ACID', '1759-53-1', 'Carboxycyclopropane', 'Cyclopropylcarboxylic acid', 'Cyclopropionic acid', 'Cyclopropane carboxylic acid', 'Cyclopropanecarboxylicacid', 'CPC-acid', 'UNII-008803351S', 'cyclopropyl carboxylic acid', 'Cyclopropane-carboxylic acid', 'NSC1112', 'MFCD00001287', '008803351S', 'NSC 1112', 'EINECS 217-162-5', 'Trimethylenecarboxylic acid', 'cyclopropane carboylic acid', 'BRN 0969839', 'AI3-30542', 'ACMC-209eau', 'Cyclopropylmethanoic acid', 'cyclopropancarboxylic acid', 'Cyclpropanecarboxylic acid', 'cyclopropan carboxylic acid', 'cyclopropyl-carboxylic acid', 'WLN: L3TJ AVQ', '2-cyclopropanecarboxylic acid', '4-09-00-00003 (Beilstein Handbook Reference)', '8 OLAPARIB IMPURITY 8', '(r)-cyclopropanecarboxylic acid', 'CHEMBL4649900', 'DTXSID1040665', 'CHEBI:23500', 'Cyclopropanecarboxylic acid, 95%', 'NSC-1112', 'STR00627', 'ZINC1587860', 'CC0017', 'STL168574', 'AKOS000119770', 'AM83282', 'CS-W018339', 'LS41647', 'MCULE-4677373694', 'DB-016122', 'FT-0624283', '11247-EP2292621A1', '11247-EP2316827A1', '11247-EP2316834A1', 'A812135', 'Cyclopropanecarboxylic acid, purum, >=98.0% (T)', 'Q-200907', 'Q2317381', 'F2191-0028', 'Z1258948161', '1029691-20-0', 'ZPJ']
193;methylsulfonylmethane;-1;C2H6O2S;94.14;CS(=O)(=O)C;6213;361.3;;-67.5;;;;-9.6;-10.3;-9.3;;31.1;;;"['Dimethyl sulfone', 'Methyl sulfone', '67-71-0', 'Methylsulfonylmethane', 'DIMETHYLSULFONE', 'Dimethyl sulphone', 'Sulfonylbismethane', 'Methane, sulfonylbis-', 'sulfonyldimethane', 'Sulphonylbismethane', 'methylsulfone', 'Methylsulfonyl methane', 'METHANESULFONYLMETHANE', '(methylsulfonyl)methane', 'DMSO2', 'METHYL SULFONYL METHANE', 'UNII-9H4PO4Z4FT', 'NSC 63345', ""Methane, 1,1'-sulfonylbis-"", '9H4PO4Z4FT', 'CHEMBL25028', 'CHEBI:9349', 'CCRIS 2938', 'EINECS 200-665-9', 'dimethylsulfon', 'dimethylsulphone', 'methy sulfone', 'AI3-25306', 'Lignisul MSM', 'Sulfonylbis-methane', 'Opti MSM', 'Sulfone, dimethyl-', 'MFCD00007566', '(methylsulphonyl)methane', 'Dimethyl sulfone solution', 'Dimethyl sulfone, 98%', '2-Thiapropane2,2-dioxide', 'ACMC-209o0h', 'MolMap_000019', 'DSSTox_CID_23937', 'DSSTox_GSID_43937', 'SPECTRUM1505358', 'DTXSID4043937', 'AMY25756', 'HY-Y1314', 'NSC63345', 'ZINC4658606', 'Tox21_303712', 'BDBM50026473', 'NSC-63345', 'AKOS015897615', 'CCG-214558', 'DB14090', 'MCULE-3320409932', 'CAS-67-71-0', 'NCGC00095990-01', 'NCGC00357027-01', 'DB-050533', 'CS-0017786', 'FT-0625160', 'M0509', 'M1239', 'EN300-79559', 'D70240', '74380-EP2269993A1', '74380-EP2270002A1', '74380-EP2308857A1', '74380-EP2371797A1', '74380-EP2371798A1', '74380-EP2371800A1', '74380-EP2371804A1', '90984-EP2280012A2', '90984-EP2305248A1', '162163-EP2281815A1', 'A835859', 'Q423842', 'F0001-1776', 'Z417007936', 'Dimethyl sulfone, Standard for quantitative NMR, TraceCERT(R)', 'Methylsulfonylmethane, United States Pharmacopeia (USP) Reference Standard', 'Methylsulfonylmethane, Pharmaceutical Secondary Standard; Certified Reference Material']"