Number;IUPAC_name;Charge;Molecular Formula;Molecular Weight [g/mol];Isomeric SMILES;Pubchem CID;GasPhaseAcidity_B2PLYP//DLPNO-CCSD(T) [kcal/mol];GSolv_Ion_Water [kcal/mol];GSolv_Ion_DMSO [kcal/mol];GSolv_Ion_Acetonitrile [kcal/mol];GSolv_Ion_MeOH [kcal/mol];Gsolv_Neutral_Water_exp [kcal/mol];Gsolv_Neutral_DMSO_TZVPD-Fine [kcal/mol];Gsolv_Neutral_Acetonitrile_TZVPD-Fine [kcal/mol];Gsolv_Neutral_MeOH_TZVPD-Fine [kcal/mol];pka_water;pka_DMSO;pka_Acetonitrile;pka_MeOH;Synonyms
13;N,N-diethylethanamine;1;C6H15N;101.19;CCN(CC)CC;8471;226.9;-51.9;;-62.8;-54.0;-3;-2.4;-3.3;-5.1;10.8;;18.6;10.8;['TRIETHYLAMINE', 'N,N-Diethylethanamine', '121-44-8', 'Ethanamine, N,N-diethyl-', '(Diethylamino)ethane', 'Triethylamin', 'triethyl amine', 'Triaethylamin', 'Trietilamina', 'N,N,N-Triethylamine', 'NEt3', 'trietylamine', 'triethyl-amine', 'tri-ethyl amine', 'UNII-VOU728O6AY', '(C2H5)3N', 'MFCD00009051', 'Et3N', 'N,N-diethyl-ethanamine', 'VOU728O6AY', 'CHEBI:35026', 'Diethylaminoethane', 'Triethylamine, >=99.5%', 'Triaethylamin [German]', 'Trietilamina [Italian]', 'CCRIS 4881', 'HSDB 896', 'TEN [Base]', 'EINECS 204-469-4', 'UN1296', 'triehtylamine', 'triehylamine', 'trieihylamine', 'triethlyamine', 'triethyamine', 'TRIETHYLAMINE 100ML', 'triethylamme', 'triethylarnine', 'Thethylamine', 'Triethlamine', 'triethyIamine', 'Triethylannine', 'tri-ethylamine', 'triehyl amine', 'triethyl amin', 'triethylam ine', 'triethylami-ne', 'triethylamine-', 'trietyl amine', 'tri ethyl amine', 'triethyl- amine', 'AI3-15425', 'Green Tea 95%', 'N, N-diethylethanamine', 'Green Tea PE 50%', 'Green Tea PE 90%', 'N,N,N-Triethylamine #', 'triethylamine, 99.5%', 'Triethylamine, >=99%', 'Triethylamine [UN1296] [Flammable liquid]', 'ACMC-1BP6L', 'DSSTox_CID_4366', 'EC 204-469-4', 'N(Et)3', 'DSSTox_RID_77381', 'NCIOpen2_006503', 'DSSTox_GSID_24366', 'BIDD:ER0331', 'Triethylamine (Reagent Grade)', 'Triethylamine, LR, >=99%', '(CH3CH2)3N', 'CHEMBL284057', 'N(CH2CH3)3', 'Green Tea Extract (50/30)', 'Green Tea Extract (90/40)', 'DTXSID3024366', 'Triethylamine, HPLC, 99.6%', 'Triethylamine, p.a., 99.0%', 'Green Tea Extract 50% Material', 'Triethylamine, analytical standard', 'ADAL1185352', 'BCP07310', 'N(C2H5)3', 'Triethylamine, for synthesis, 99%', 'ZINC1242720', 'Tox21_200873', 'Triethylamine, 99.7%, extra pure', 'GREEN TEA Powder & Powder Extract', 'STL282722', 'AKOS000119998', 'Triethylamine, purum, >=99% (GC)', 'Triethylamine, ZerO2(TM), >=99%', 'ZINC112977393', 'MCULE-6692975244', 'UN 1296', 'NCGC00248857-01', 'NCGC00258427-01', 'CAS-121-44-8', 'Triethylamine, BioUltra, >=99.5% (GC)', 'Triethylamine, SAJ first grade, >=98.0%', 'FT-0688146', 'T0424', 'Triethylamine 100 microg/mL in Acetonitrile', 'Triethylamine [UN1296]  [Flammable liquid]', 'Triethylamine,  trace metals grade, 99.99%', 'Triethylamine, SAJ special grade, >=98.0%', '3480-EP0930075A1', '3480-EP1441224A2', '3480-EP2269610A2', '3480-EP2269977A2', '3480-EP2269978A2', '3480-EP2269979A1', '3480-EP2269985A2', '3480-EP2269986A1', '3480-EP2269989A1', '3480-EP2269990A1', '3480-EP2269991A2', '3480-EP2269992A1', '3480-EP2269993A1', '3480-EP2269994A1', '3480-EP2269995A1', '3480-EP2269999A1', '3480-EP2270003A1', '3480-EP2270004A1', '3480-EP2270006A1', '3480-EP2270008A1', '3480-EP2270009A1', '3480-EP2270010A1', '3480-EP2270011A1', '3480-EP2270012A1', '3480-EP2270013A1', '3480-EP2270014A1', '3480-EP2270113A1', '3480-EP2270114A1', '3480-EP2270505A1', '3480-EP2272509A1', '3480-EP2272516A2', '3480-EP2272517A1', '3480-EP2272537A2', '3480-EP2272813A2', '3480-EP2272817A1', '3480-EP2272822A1', '3480-EP2272825A2', '3480-EP2272826A1', '3480-EP2272827A1', '3480-EP2272829A2', '3480-EP2272830A1', '3480-EP2272832A1', '3480-EP2272834A1', '3480-EP2272835A1', '3480-EP2272838A1', '3480-EP2272841A1', '3480-EP2272842A1', '3480-EP2272844A1', '3480-EP2272848A1', '3480-EP2272935A1', '3480-EP2272972A1', '3480-EP2272973A1', '3480-EP2274983A1', '3480-EP2275102A1', '3480-EP2275105A1', '3480-EP2275398A1', '3480-EP2275401A1', '3480-EP2275404A1', '3480-EP2275410A1', '3480-EP2275411A2', '3480-EP2275412A1', '3480-EP2275413A1', '3480-EP2275414A1', '3480-EP2275420A1', '3480-EP2275421A1', '3480-EP2275424A1', '3480-EP2275427A1', '3480-EP2277848A1', '3480-EP2277858A1', '3480-EP2277861A1', '3480-EP2277863A1', '3480-EP2277865A1', '3480-EP2277867A2', '3480-EP2277872A1', '3480-EP2277874A1', '3480-EP2277875A2', '3480-EP2277876A1', '3480-EP2277877A1', '3480-EP2277878A1', '3480-EP2277880A1', '3480-EP2277881A1', '3480-EP2277882A1', '3480-EP2277898A2', '3480-EP2279741A2', '3480-EP2279750A1', '3480-EP2280000A1', '3480-EP2280001A1', '3480-EP2280003A2', '3480-EP2280005A1', '3480-EP2280006A1', '3480-EP2280007A1', '3480-EP2280008A2', '3480-EP2280009A1', '3480-EP2280010A2', '3480-EP2280012A2', '3480-EP2280014A2', '3480-EP2281563A1', '3480-EP2281810A1', '3480-EP2281815A1', '3480-EP2281817A1', '3480-EP2281818A1', '3480-EP2281819A1', '3480-EP2281820A2', '3480-EP2281821A1', '3480-EP2281822A1', '3480-EP2281823A2', '3480-EP2283898A1', '3480-EP2284150A2', '3480-EP2284151A2', '3480-EP2284152A2', '3480-EP2284153A2', '3480-EP2284154A1', '3480-EP2284155A2', '3480-EP2284156A2', '3480-EP2284157A1', '3480-EP2284159A1', '3480-EP2284160A1', '3480-EP2284164A2', '3480-EP2284169A1', '3480-EP2284171A1', '3480-EP2284174A1', '3480-EP2286811A1', '3480-EP2286812A1', '3480-EP2287140A2', '3480-EP2287147A2', '3480-EP2287148A2', '3480-EP2287150A2', '3480-EP2287152A2', '3480-EP2287153A1', '3480-EP2287154A1', '3480-EP2287155A1', '3480-EP2287156A1', '3480-EP2287157A1', '3480-EP2287159A1', '3480-EP2287160A1', '3480-EP2287161A1', '3480-EP2287162A1', '3480-EP2287163A1', '3480-EP2287165A2', '3480-EP2287166A2', '3480-EP2287167A1', '3480-EP2287168A2', '3480-EP2289509A2', '3480-EP2289510A1', '3480-EP2289868A1', '3480-EP2289871A1', '3480-EP2289876A1', '3480-EP2289879A1', '3480-EP2289883A1', '3480-EP2289884A1', '3480-EP2289885A1', '3480-EP2289887A2', '3480-EP2289888A2', '3480-EP2289890A1', '3480-EP2289891A2', '3480-EP2289892A1', '3480-EP2289893A1', '3480-EP2289894A2', '3480-EP2289896A1', '3480-EP2289897A1', '3480-EP2289965A1', '3480-EP2292227A2', '3480-EP2292228A1', '3480-EP2292234A1', '3480-EP2292576A2', '3480-EP2292589A1', '3480-EP2292590A2', '3480-EP2292592A1', '3480-EP2292593A2', '3480-EP2292596A2', '3480-EP2292597A1', '3480-EP2292606A1', '3480-EP2292607A2', '3480-EP2292609A1', '3480-EP2292610A1', '3480-EP2292611A1', '3480-EP2292612A2', '3480-EP2292613A1', '3480-EP2292614A1', '3480-EP2292615A1', '3480-EP2292617A1', '3480-EP2292619A1', '3480-EP2292620A2', '3480-EP2292621A1', '3480-EP2292624A1', '3480-EP2292628A2', '3480-EP2292630A1', '3480-EP2295402A2', '3480-EP2295406A1', '3480-EP2295407A1', '3480-EP2295408A1', '3480-EP2295409A1', '3480-EP2295410A1', '3480-EP2295411A1', '3480-EP2295412A1', '3480-EP2295413A1', '3480-EP2295414A1', '3480-EP2295415A1', '3480-EP2295416A2', '3480-EP2295417A1', '3480-EP2295418A1', '3480-EP2295419A2', '3480-EP2295423A1', '3480-EP2295425A1', '3480-EP2295426A1', '3480-EP2295427A1', '3480-EP2295429A1', '3480-EP2295430A2', '3480-EP2295431A2', '3480-EP2295432A1', '3480-EP2295433A2', '3480-EP2295434A2', '3480-EP2295435A1', '3480-EP2295437A1', '3480-EP2295438A1', '3480-EP2295439A1', '3480-EP2295441A2', '3480-EP2295503A1', '3480-EP2298312A1', '3480-EP2298728A1', '3480-EP2298729A1', '3480-EP2298731A1', '3480-EP2298732A1', '3480-EP2298734A2', '3480-EP2298735A1', '3480-EP2298736A1', '3480-EP2298738A1', '3480-EP2298742A1', '3480-EP2298743A1', '3480-EP2298744A2', '3480-EP2298745A1', '3480-EP2298746A1', '3480-EP2298747A1', '3480-EP2298748A2', '3480-EP2298750A1', '3480-EP2298752A1', '3480-EP2298753A1', '3480-EP2298754A1', '3480-EP2298755A1', '3480-EP2298757A2', '3480-EP2298761A1', '3480-EP2298763A1', '3480-EP2298764A1', '3480-EP2298765A1', '3480-EP2298766A1', '3480-EP2298767A1', '3480-EP2298768A1', '3480-EP2298770A1', '3480-EP2298772A1', '3480-EP2298774A1', '3480-EP2298775A1', '3480-EP2298776A1', '3480-EP2298778A1', '3480-EP2298779A1', '3480-EP2298828A1', '3480-EP2299326A1', '3480-EP2301534A1', '3480-EP2301536A1', '3480-EP2301538A1', '3480-EP2301544A1', '3480-EP2301627A1', '3480-EP2301911A1', '3480-EP2301912A2', '3480-EP2301913A1', '3480-EP2301914A1', '3480-EP2301916A2', '3480-EP2301918A1', '3480-EP2301922A1', '3480-EP2301923A1', '3480-EP2301926A1', '3480-EP2301928A1', '3480-EP2301929A1', '3480-EP2301931A1', '3480-EP2301932A1', '3480-EP2301933A1', '3480-EP2301934A1', '3480-EP2301935A1', '3480-EP2301936A1', '3480-EP2301939A1', '3480-EP2301940A1', '3480-EP2301983A1', '3480-EP2302015A1', '3480-EP2305219A1', '3480-EP2305250A1', '3480-EP2305254A1', '3480-EP2305257A1', '3480-EP2305625A1', '3480-EP2305633A1', '3480-EP2305637A2', '3480-EP2305640A2', '3480-EP2305641A1', '3480-EP2305642A2', '3480-EP2305643A1', '3480-EP2305644A1', '3480-EP2305646A1', '3480-EP2305647A1', '3480-EP2305648A1', '3480-EP2305649A1', '3480-EP2305651A1', '3480-EP2305652A2', '3480-EP2305654A1', '3480-EP2305655A2', '3480-EP2305657A2', '3480-EP2305658A1', '3480-EP2305659A1', '3480-EP2305660A1', '3480-EP2305663A1', '3480-EP2305666A1', '3480-EP2305667A2', '3480-EP2305668A1', '3480-EP2305671A1', '3480-EP2305672A1', '3480-EP2305673A1', '3480-EP2305674A1', '3480-EP2305675A1', '3480-EP2305676A1', '3480-EP2305677A1', '3480-EP2305678A1', '3480-EP2305679A1', '3480-EP2305681A1', '3480-EP2305682A1', '3480-EP2305684A1', '3480-EP2305687A1', '3480-EP2305688A1', '3480-EP2305695A2', '3480-EP2305696A2', '3480-EP2305697A2', '3480-EP2305698A2', '3480-EP2305769A2', '3480-EP2305808A1', '3480-EP2305825A1', '3480-EP2308479A2', '3480-EP2308492A1', '3480-EP2308510A1', '3480-EP2308562A2', '3480-EP2308812A2', '3480-EP2308828A2', '3480-EP2308832A1', '3480-EP2308833A2', '3480-EP2308838A1', '3480-EP2308839A1', '3480-EP2308840A1', '3480-EP2308844A2', '3480-EP2308845A2', '3480-EP2308846A2', '3480-EP2308847A1', '3480-EP2308848A1', '3480-EP2308849A1', '3480-EP2308850A1', '3480-EP2308851A1', '3480-EP2308854A1', '3480-EP2308857A1', '3480-EP2308858A1', '3480-EP2308861A1', '3480-EP2308862A1', '3480-EP2308867A2', '3480-EP2308868A1', '3480-EP2308869A1', '3480-EP2308870A2', '3480-EP2308871A1', '3480-EP2308872A1', '3480-EP2308873A1', '3480-EP2308874A1', '3480-EP2308875A1', '3480-EP2308876A1', '3480-EP2308877A1', '3480-EP2308879A1', '3480-EP2308880A1', '3480-EP2308882A1', '3480-EP2308883A1', '3480-EP2308960A1', '3480-EP2311451A1', '3480-EP2311455A1', '3480-EP2311464A1', '3480-EP2311796A1', '3480-EP2311797A1', '3480-EP2311798A1', '3480-EP2311799A1', '3480-EP2311801A1', '3480-EP2311802A1', '3480-EP2311803A1', '3480-EP2311804A2', '3480-EP2311806A2', '3480-EP2311807A1', '3480-EP2311808A1', '3480-EP2311810A1', '3480-EP2311811A1', '3480-EP2311814A1', '3480-EP2311816A1', '3480-EP2311817A1', '3480-EP2311818A1', '3480-EP2311820A1', '3480-EP2311822A1', '3480-EP2311823A1', '3480-EP2311824A1', '3480-EP2311825A1', '3480-EP2311826A2', '3480-EP2311827A1', '3480-EP2311829A1', '3480-EP2311830A1', '3480-EP2311831A1', '3480-EP2311834A1', '3480-EP2311835A1', '3480-EP2311836A1', '3480-EP2311837A1', '3480-EP2311838A1', '3480-EP2311840A1', '3480-EP2311842A2', '3480-EP2311850A1', '3480-EP2314295A1', '3480-EP2314298A1', '3480-EP2314571A2', '3480-EP2314575A1', '3480-EP2314576A1', '3480-EP2314583A1', '3480-EP2314584A1', '3480-EP2314585A1', '3480-EP2314586A1', '3480-EP2314587A1', '3480-EP2314590A1', '3480-EP2314593A1', '3480-EP2316450A1', '3480-EP2316452A1', '3480-EP2316457A1', '3480-EP2316458A1', '3480-EP2316470A2', '3480-EP2316824A1', '3480-EP2316825A1', '3480-EP2316826A1', '3480-EP2316827A1', '3480-EP2316828A1', '3480-EP2316829A1', '3480-EP2316831A1', '3480-EP2316832A1', '3480-EP2316833A1', '3480-EP2316835A1', '3480-EP2316836A1', '3480-EP2371811A2', '3480-EP2371814A1', '3480-EP2371831A1', '3480-EP2374783A1', '3480-EP2374788A1', '3480-EP2374790A1', '3480-EP2374792A1', '3480-EP2377813A1', '3480-EP2377841A1', '3480-EP2377847A1', '3480-EP2380568A1', '3480-EP2380869A1', '3480-EP2380870A1', '3480-EP2380874A2', '4977-EP1441224A2', '4977-EP2269977A2', '4977-EP2269979A1', '4977-EP2270004A1', '4977-EP2270006A1', '4977-EP2270010A1', '4977-EP2270011A1', '4977-EP2270014A1', '4977-EP2270018A1', '4977-EP2272825A2', '4977-EP2272838A1', '4977-EP2272839A1', '4977-EP2272840A1', '4977-EP2275102A1', '4977-EP2275105A1', '4977-EP2275412A1', '4977-EP2275413A1', '4977-EP2277848A1', '4977-EP2280012A2', '4977-EP2284148A1', '4977-EP2286811A1', '4977-EP2287156A1', '4977-EP2287157A1', '4977-EP2287165A2', '4977-EP2287166A2', '4977-EP2289871A1', '4977-EP2289883A1', '4977-EP2289897A1', '4977-EP2292589A1', '4977-EP2292620A2', '4977-EP2295402A2', '4977-EP2295410A1', '4977-EP2295412A1', '4977-EP2295413A1', '4977-EP2295416A2', '4977-EP2295426A1', '4977-EP2295427A1', '4977-EP2295429A1', '4977-EP2295433A2', '4977-EP2295439A1', '4977-EP2295441A2', '4977-EP2295503A1', '4977-EP2298735A1', '4977-EP2298743A1', '4977-EP2298748A2', '4977-EP2298761A1', '4977-EP2298770A1', '4977-EP2298776A1', '4977-EP2298780A1', '4977-EP2298783A1', '4977-EP2301536A1', '4977-EP2301538A1', '4977-EP2301544A1', '4977-EP2301923A1', '4977-EP2301930A1', '4977-EP2301939A1', '4977-EP2301940A1', '4977-EP2302382A2', '4977-EP2302383A2', '4977-EP2305250A1', '4977-EP2305648A1', '4977-EP2305651A1', '4977-EP2305671A1', '4977-EP2305682A1', '4977-EP2305684A1', '4977-EP2305689A1', '4977-EP2308841A2', '4977-EP2308844A2', '4977-EP2308845A2', '4977-EP2308846A2', '4977-EP2308848A1', '4977-EP2308854A1', '4977-EP2308861A1', '4977-EP2308867A2', '4977-EP2308870A2', '4977-EP2308873A1', '4977-EP2308875A1', '4977-EP2308879A1', '4977-EP2308960A1', '4977-EP2311455A1', '4977-EP2311824A1', '4977-EP2311829A1', '4977-EP2311831A1', '4977-EP2311841A1', '4977-EP2311842A2', '4977-EP2314295A1', '4977-EP2316824A1', '4977-EP2316831A1', '4977-EP2316835A1', '4977-EP2316836A1', '4977-EP2374454A1', '6532-EP2270001A1', '6532-EP2270014A1', '6532-EP2272509A1', '6532-EP2272517A1', '6532-EP2272822A1', '6532-EP2275102A1', '6532-EP2275412A1', '6532-EP2277945A1', '6532-EP2286811A1', '6532-EP2287165A2', '6532-EP2287166A2', '6532-EP2289510A1', '6532-EP2289890A1', '6532-EP2289893A1', '6532-EP2292576A2', '6532-EP2292590A2', '6532-EP2292592A1', '6532-EP2292620A2', '6532-EP2295402A2', '6532-EP2295424A1', '6532-EP2295432A1', '6532-EP2295437A1', '6532-EP2298767A1', '6532-EP2298770A1', '6532-EP2298775A1', '6532-EP2298783A1', '6532-EP2302382A2', '6532-EP2305667A2', '6532-EP2305684A1', '6532-EP2305825A1', '6532-EP2308851A1', '6532-EP2311802A1', '6532-EP2311803A1', '6532-EP2311830A1', '6532-EP2311831A1', '6532-EP2311837A1', '6532-EP2314295A1', '6532-EP2314576A1', '6532-EP2314587A1', '6532-EP2314588A1', '6532-EP2316826A1', '6532-EP2316832A1', '6532-EP2316833A1', '6532-EP2316836A1', '6532-EP2377847A1', '6532-EP2380867A1', '13196-EP2277867A2', '13196-EP2280003A2', '13196-EP2298770A1', '13196-EP2305644A1', '13196-EP2305652A2', '13196-EP2305684A1', '13196-EP2308840A1', '13196-EP2308841A2', '13196-EP2308849A1', '13196-EP2308851A1', '13196-EP2314576A1', '13196-EP2316834A1', '13196-EP2377847A1', '56723-EP2272509A1', '56723-EP2272846A1', '56723-EP2275422A1', '56723-EP2277868A1', '56723-EP2277869A1', '56723-EP2277870A1', '56723-EP2284166A1', '56723-EP2289483A1', '56723-EP2289881A1', '56723-EP2292608A1', '56723-EP2292616A1', '56723-EP2292625A1', '56723-EP2295422A2', '56723-EP2295436A1', '56723-EP2298305A1', '56723-EP2298749A1', '56723-EP2298762A2', '56723-EP2298769A1', '56723-EP2298773A1', '56723-EP2308851A1', '56723-EP2308852A1', '56723-EP2308866A1', '56723-EP2308878A2', '56723-EP2374791A1', '92952-EP2305658A1', 'Triethylamine, puriss. p.a., >=99.5% (GC)', '112520-EP2295503A1', '112520-EP2298738A1', 'Q139199', 'J-004499', 'J-525077', 'F0001-0344', 'Triethylamine, for amino acid analysis, >=99.5% (GC)', 'Z137796018', 'Triethylamine, for protein sequence analysis, ampule, >=99.5% (GC)', 'Triethylamine, United States Pharmacopeia (USP) Reference Standard']
14;N,N-dipropylpropan-1-amine;1;C9H21N;143.27;CCCN(CCC)CCC;7616;;;;;;-2.5;-2.7;-4.0;-5.9;10.3;;18.1;;['TRIPROPYLAMINE', 'Tri-n-propylamine', '102-69-2', 'N,N-dipropylpropan-1-amine', '1-Propanamine, N,N-dipropyl-', 'N,N-Dipropyl-1-propanamine', 'Propyldi-n-propylamine', 'Tripropylammonium', 'Tripropyl amine', 'UNII-06S624V3U2', 'NPr3', 'N,N-Dipropyl-1-propylamine', 'Tripropylamin', '(n-C3H7)3N', '06S624V3U2', 'Tripropylamine, >=98%', 'HSDB 2097', 'EINECS 203-047-7', 'UN2260', 'tri-n-propyl amin', 'tri(n-propyl)amine', 'tri-n-propyl-amine', 'MFCD00009363', 'tris(1-propyl)amine', 'Tripropylamine [UN2260] [Flammable liquid]', 'N,N-Dpropyl-1-propanamne', 'EC 203-047-7', 'SCHEMBL5358', 'ACMC-1C04E', 'NCIOpen2_001723', 'DTXSID9021849', 'CHEBI:38880', 'Tripropylamine, analytical standard', 'ZINC1632621', 'AKOS000120960', 'MCULE-8834240289', 'UN 2260', 'FT-0656542', 'T0522', 'Tripropylamine [UN2260]  [Flammable liquid]', '11063-EP2269610A2', '11063-EP2270011A1', '11063-EP2277848A1', '11063-EP2277867A2', '11063-EP2280003A2', '11063-EP2281821A1', '11063-EP2284160A1', '11063-EP2287155A1', '11063-EP2289510A1', '11063-EP2292576A2', '11063-EP2295409A1', '11063-EP2295414A1', '11063-EP2298731A1', '11063-EP2298761A1', '11063-EP2301931A1', '11063-EP2305257A1', '11063-EP2305677A1', '11063-EP2305682A1', '11063-EP2308840A1', '11063-EP2308851A1', '11063-EP2308879A1', '11063-EP2311804A2', '11063-EP2311842A2', '11063-EP2314590A1', '11063-EP2314593A1', '11063-EP2316457A1', '11063-EP2316458A1', '11063-EP2316825A1', '11063-EP2316826A1', '11063-EP2316827A1', '11063-EP2316828A1', '59623-EP2272846A1', '59623-EP2308852A1', '206400-EP2377813A1', '206400-EP2380869A1', '206400-EP2380870A1', 'J-000767', 'J-523283', 'Q1637944']