Number;IUPAC_name;Charge;Molecular Formula;Molecular Weight [g/mol];Isomeric SMILES;Pubchem CID;GasPhaseAcidity_B2PLYP//DLPNO-CCSD(T) [kcal/mol];GSolv_Ion_Water [kcal/mol];GSolv_Ion_DMSO [kcal/mol];GSolv_Ion_Acetonitrile [kcal/mol];GSolv_Ion_MeOH [kcal/mol];Gsolv_Neutral_Water_exp [kcal/mol];Gsolv_Neutral_DMSO_TZVPD-Fine [kcal/mol];Gsolv_Neutral_Acetonitrile_TZVPD-Fine [kcal/mol];Gsolv_Neutral_MeOH_TZVPD-Fine [kcal/mol];pka_water;pka_DMSO;pka_Acetonitrile;pka_MeOH;Synonyms
199;propanedinitrile;-1;C3H2N2;66.06;C(C#N)C#N;8010;328.6;;-62.0;;;;-9.4;-8.7;-8.0;;11;;;['MALONONITRILE', 'Propanedinitrile', '109-77-3', 'Dicyanomethane', 'Malonic dinitrile', 'Cyanoacetonitrile', 'Methylene cyanide', 'Malonodinitrile', 'Dicyanmethane', 'Malonic acid dinitrile', 'Methylenedinitrile', 'Methane, dicyano-', 'Nitril kyseliny malonove', 'Dwumetylosulfotlenku', 'USAF A-4600', 'RCRA waste number U149', 'USAF KF-19', 'UNII-EBL1KKS93J', 'Malonsaeuredinitril', 'NSC 3769', 'MFCD00001883', 'EBL1KKS93J', 'CHEBI:33186', 'Methylenecyanide', 'Propanedinitrite', 'Dwumetylosulfotlenku [Polish]', 'CCRIS 4663', 'HSDB 2523', 'Nitril kyseliny malonove [Czech]', 'Nitrile kyseliny malonove [Czech]', 'Nitrile kyseliny malonove', 'EINECS 203-703-2', 'UN2647', 'RCRA waste no. U149', 'BRN 0773697', 'Malononitril', 'AI3-24285', 'Methylene Dicyanide', '1,1-dicyanomethane', 'ACMC-1BSLD', 'Malononitrile, >=99%', 'DSSTox_CID_1907', 'WLN: NC1CN', 'EC 203-703-2', 'DSSTox_RID_76396', 'DSSTox_GSID_21907', '4-02-00-01892 (Beilstein Handbook Reference)', 'CH2(CN)2', 'CHEMBL3187514', 'DTXSID6021907', 'NSC3769', 'AMY40191', 'NSC-3769', 'ZINC1672844', 'Tox21_301196', 'BBL019511', 'STL168026', 'Malononitrile [UN2647]  [Poison]', 'AKOS000119843', 'GS-6711', 'MCULE-6287283578', 'UN 2647', 'malonic acid dinitrile, propanedinitrile', 'NCGC00248329-01', 'NCGC00257529-01', 'BP-11270', 'CAS-109-77-3', 'I844', 'FT-0628131', 'FT-0689819', 'M0033', 'E78923', '27264-EP2270015A1', '27264-EP2305682A1', '27264-EP2308879A1', '27264-EP2314575A1', '27264-EP2371812A1', '27264-EP2380568A1', 'Q419572', 'J-002327', 'J-521671', 'F1908-0116', 'Z1262254385', 'Malononitrile, Lonza quality, >=99.0% (calculated, GC, KF)']
200;3-methylphenol;-1;C7H8O;108.14;CC1=CC(=CC=C1)O;342;344.2;;;;-73.1;;-11.1;-9.5;-9.7;;;;14.5;"['m-cresol', '3-methylphenol', 'Metacresol', '108-39-4', 'Phenol, 3-methyl-', 'meta-cresol', '3-cresol', '3-hydroxytoluene', 'm-methylphenol', 'm-kresol', 'm-oxytoluene', 'm-cresylic acid', 'm-toluol', '1-hydroxy-3-methylbenzene', 'm-Hydroxytoluene', 'meta-cresylic acid', 'hydroxy-3-methylbenzene', 'CRESOL, META', 'm-cresylic', 'm-Cresole', '3-methyl-1-hydroxybenzene', 'UNII-GGO4Y809LO', 'NSC 8768', 'GGO4Y809LO', 'CHEMBL298312', 'Phenol, 3-methyl-, homopolymer', 'CHEBI:17231', 'm-Cresol, 99%', 'TOLUENE,3-HYDROXY  (META-CRESOL)', 'DSSTox_CID_4200', 'Franklin Cresolis', 'DSSTox_RID_77325', 'DSSTox_GSID_24200', 'Metacresol (3-Methylphenol)', 'CRS', 'm-Kresol [German]', ""Rover's Dog Shampoo"", 'Caswell No. 261A', 'meta cresol', 'MFCD00002302', '3-methyl phenol', '1-Methyl-3-hydroxybenzene', 'Cresol, m-isomer', '27289-33-4', 'CAS-108-39-4', 'CCRIS 645', 'Cresol, m-', 'FEMA No. 3530', 'HSDB 1815', 'Metacresol [USP:BAN]', 'EINECS 203-577-9', 'EPA Pesticide Chemical Code 022102', '3methylphenol', 'AI3-00136', '3-methyl-phenol', 'Cresol,m-', 'm-Cresol;', 'Celcure Dry Mix (chemicals for wood preserving)', 'Metacresol (USP)', 'ACMC-1BYYH', 'bmse000350', 'EC 203-577-9', 'WLN: QR C1', 'SCHEMBL10736', 'm-Cresol, analytical standard', 'm-Cresol, >=98%, FG', 'SCHEMBL7410931', 'DTXSID6024200', 'm-Cresol, for synthesis, 99%', 'm-Cresol, reagent grade, 97%', 'NSC8768', 'm-Cresol, Ph.Eur., 99.5%', 'ZINC897141', '3-Methylphenol, analytical standard', 'NSC-8768', 'Tox21_201941', 'Tox21_302645', 'BDBM50008548', 'STL185666', 'AKOS000119006', 'AM62795', 'CCG-230271', 'DB01776', 'MCULE-6836106503', 'NCGC00159366-02', 'NCGC00159366-03', 'NCGC00159366-04', 'NCGC00159366-05', 'NCGC00159366-06', 'NCGC00256824-01', 'NCGC00259490-01', 'AC-14350', 'BS-23591', 'm-Cresol, SAJ first grade, >=97.0%', '3-Methylphenol 100 microg/mL in Methanol', 'FT-0628174', 'm-Cresol [UN2076]  [Poison, Corrosive]', '3863-EP2270114A1', '3863-EP2298750A1', 'C01467', 'D04951', '28671-EP2314579A1', 'A801870', 'Q312240', 'J-002137', 'J-521679', 'F0001-0167', 'Z955123620', 'UNII-3JYG22FD73 component RLSSMJSEOOYNOY-UHFFFAOYSA-N', 'UNII-GF3CGH8D7Z component RLSSMJSEOOYNOY-UHFFFAOYSA-N', 'Metacresol, United States Pharmacopeia (USP) Reference Standard']"
201;methanesulfonamide;-1;CH5NO2S;95.12;CS(=O)(=O)N;72879;340.3;;-67.9;;;;-12.5;-10.5;-10.3;;17.5;;;['Methanesulfonamide', '3144-09-0', 'Methylsulfonamide', 'Methanesulphonamide', 'Methane sulfonamide', 'methyl sulfonylamine', 'methansulfonamid', 'CH5NO2S', 'methyl sulfonamide', 'aminosulfane dioxide', 'MFCD00007940', 'UNII-98YB2P6NHR', '98YB2P6NHR', 'CHEMBL305268', 'CH3SO2NH2', 'mesylamine', 'methansulfonamide', 'methansulphonamide', 'methylsulphonamide', 'methyl-sulfonamide', 'methylsulfonylamine', 'NSC 271', 'methane-sulfonamide', 'methyl sulphonamide', 'methane sulphonamide', 'EINECS 221-553-6', 'methanesulfonyl amine', 'H2NSO2Me', 'MeSO2NH2', 'ACMC-209hmq', 'AI3-51925', 'Methanesulfonamide, 98%', 'methanesulfonic acid amide', 'methansulphonic acid amide', 'methanesulphonic acid amide', 'NSC271', 'DTXSID3062865', 'HNQIVZYLYMDVSB-UHFFFAOYSA-', 'NSC-271', 'STR04982', 'AC7862', 'BDBM50044318', 'ZINC43781235', 'AKOS000150477', 'CS-W020062', 'MCULE-3286513976', 'Methanesulfonamide, >=97.0% (CHN)', 'BP-10673', 'SY001366', 'DB-002791', 'FT-0628286', 'M0915', 'AZ0001-0350', '44M090', 'J-018431', 'J-521694', 'Z54080282', 'F0001-0946']
202;methanesulfonic acid;-1;CH4O3S;96.11;CS(=O)(=O)O;6395;313.2;;;-52.5;;;-16.3;-14.0;-13.6;;;10;;['METHANESULFONIC ACID', '75-75-2', 'Methylsulfonic acid', 'Methanesulphonic acid', 'Mesylate', 'Kyselina methansulfonova', 'Mesylic acid', 'Methansulfonsaeure', 'NSC 3718', 'UNII-12EH9M7279', 'CH3SO3H', 'MFCD00007518', 'METHANE SULFONIC ACID', 'Sulfomethane', 'CHEBI:27376', '22515-76-0', '12EH9M7279', 'ammoniummethanesulfonate', 'CCRIS 2783', 'Kyselina methansulfonova [Czech]', 'HSDB 5004', 'EINECS 200-898-6', 'BRN 1446024', 'AI3-28532', 'Mesic acid', 'metanesulfonic acid', 'methansulfonic acid', 'MsOH', 'methansulphonic acid', 'methylsulphonic acid', '03S', 'methyl sulfonic acid', 'methyl-sulfonic acid', 'methane-sulfonic acid', 'MeSO3H', 'methane sulphonic acid', 'methanesulphonic-acid-', 'LACTIC ACID(DL)', 'ammonium methanesulphonate', 'CH3SO2OH', 'H3CSO3H', 'DSSTox_CID_6422', 'WLN: WSQ1', 'EC 200-898-6', 'DSSTox_RID_78109', 'Methane Sulfonic Acid 99%', 'DSSTox_GSID_26422', '4-04-00-00010 (Beilstein Handbook Reference)', 'Methanesulfonic acid, 99.5%', 'Methanesulfonic acid, anhydrous', 'CHEMBL3039600', 'DL-MALICACIDMONOSODIUMSALT', 'DTXSID4026422', 'Methanesulfonic acid, HPLC grade', 'NSC3718', 'Methanesulfonic acid, >=99.0%', 'NSC-3718', 'Tox21_201073', 'STL264182', 'Methane Sulfonic Acid, 70% Solution', 'AKOS009146947', 'AT25153', 'MCULE-6572487779', 'CAS-75-75-2', 'NCGC00248914-01', 'NCGC00258626-01', 'BP-12823', 'DB-075013', 'FT-0628287', 'M0093', 'M2059', 'Methanesulfonic acid, >=99.0%, ReagentPlus(R)', 'Methanesulfonic acid, for HPLC, >=99.5% (T)', 'A934985', 'Methanesulfonic acid solution, 70 wt. % in H2O', 'Q414168', 'J-521696', 'Methanesulfonic acid, Vetec(TM) reagent grade, 98%', 'F1908-0093', 'Z940713430', 'Methanesulfonic acid solution, 4 M (with 0.2% (w/v) tryptamine)', 'Methanesulfonic acid concentrate, 0.1 M CH3SO3H in water (0.1N), eluent concentrate for IC', 'Methanesulfonic acid, PharmaGrade, Manufactured under appropriate GMP controls for pharma or biopharmaceutical production']
203;butane-1-thiol;-1;C4H10S;90.19;CCCCS;8012;348.9;;-68.7;;;;-4.0;-4.7;-4.2;;17;;;['1-Butanethiol', 'Butanethiol', 'butane-1-thiol', '109-79-5', 'BUTYL MERCAPTAN', 'n-Butyl mercaptan', 'n-Butanethiol', 'Butylthiol', 'Thiobutyl alcohol', 'n-Butylmercaptan', '1-Mercaptobutane', '1-Butyl mercaptan', 'n-Butyl thioalcohol', 'n-Butylthiol', 'Bear skunk', 'butylmercaptan', 'Normal butyl thioalcohol', 'NCI-C60866', 'UNII-77OY909F30', 'n-C4H9SH', '77OY909F30', 'Caswell No. 119D', 'Mercaptan C4', 'n-butane-1-thiol', 'FEMA No. 3478', 'HSDB 290', 'EINECS 203-705-3', 'EPA Pesticide Chemical Code 125001', 'BRN 1730908', 'butane thiol', 'n-butanthiol', 'n-butyl mercaptan, sodium salt', 'AI3-22954', '4-butanethiol', '1-butylthiol', 'butyl thioalcohol', '1-butylmercaptan', 'n-butyl mercaptan, lithium salt', 'n-butyl mercaptan, Ag(+1) salt', 'n-butyl mercaptan, potassium salt', 'n-butyl mercaptan, tin (+2) salt', 'n-BuSH', 'n-butyl mercaptan, lead (+2) salt', 'MFCD00004905', 'BUSH', 'n-butyl mercaptan, copper (+1) salt', 'n-butyl mercaptan, silver (+2) salt', 'n-butyl mercaptan, geranium (+2) salt', 'n-butyl mercaptan, molybdenum (+3) salt', '1-Butanethiol, 99%', '32812-85-4', 'ACMC-1BQE3', 'DSSTox_CID_6824', 'UN 2347 (Related)', 'n-butyl mercaptan, 14C,1-(35)S-labeled cpd', '1-Butanethiol, >=98%', 'DSSTox_RID_78221', 'DSSTox_GSID_26824', '4-01-00-01555 (Beilstein Handbook Reference)', 'n-butyl mercaptan, 2-(14)C,2-(35)s-labeled cpd', 'CHEMBL3188256', 'DTXSID6026824', 'n-butyl mercaptan, 1,2-(14)C,2-(35) S-labeled cpd', 'FEMA 3478', 'CHEBI:177389', '1-Butanethiol, analytical standard', 'ZINC4706588', 'Tox21_200811', 'AKOS009031443', 'NCGC00248839-01', 'NCGC00258365-01', 'CAS-109-79-5', '1-Butanethiol, purum, >=97.0% (GC)', 'DB-003605', 'B0685', 'FT-0607554', '146589-EP2292597A1', '146589-EP2377849A2', 'A802088', 'Q195823', 'J-002332']
204;nitric acid;-1;HNO3;63.013;[N+](=O)(O)[O-];944;319.6;;;-54.0;;;-10.3;-7.6;-8.0;;;8.9;;"['NITRIC ACID', '7697-37-2', 'Hydrogen nitrate', 'Aqua fortis', 'Azotic acid', 'Salpetersaeure', 'RFNA', 'Acide nitrique', 'Red fuming nitric acid', 'HNO3', 'nitrooxidanyl', 'Medullipin II', 'UNII-411VRN1TV4', 'Nitric acid [NF]', 'HONO2', 'MFCD00011349', 'CHEMBL1352', '411VRN1TV4', 'CHEBI:48107', 'Nitric acid (NF)', '12033-49-7', 'Acidum nitricum', 'Nitrous fumes', ""Engraver's acid"", 'Nitryl hydroxide', '122392-03-4', 'Azotowy kwas [Polish]', 'Nitric acid, ACS reagent, 70%', 'Salpetersaure', 'Salpetersaure [German]', 'Zinc, Reference Standard Solution', 'Nitricum acidum', 'Acido nitrico', 'Cobalt, Reference Standard Solution', 'Engravers acid', 'Acide nitrique [French]', 'Acido nitrico [Italian]', 'Acido nitrico [Spanish]', 'Azotowy kwas', 'Kyselina dusicne', 'Kyselina dusicne [Czech]', 'Nitric acid, ACS reagent, >=90.0%', 'Rare earth nitrate', 'Nitric acid, rare earth salts', 'Salpeterzuuroplossingen [Dutch]', 'Salpeterzuuroplossingen', 'HSDB 1665', 'Nitric acid, anhydrous', 'EINECS 231-714-2', 'Nitric acid (conc 80% or greater)', 'Nitric acid (red fuming)', 'UN2031', 'UN2032', 'nitroalcohol', 'acide azotique', 'nitro-alcohol', 'Nitric acid (70% or less)', 'Nitro Alcohol', 'nitric -acid', 'trioxonitric acid', 'Nitrosonitric acid', 'Nitric acid (greater than 70%)', 'Cl6SubPc', 'NO3 anion', 'Nitric acid, ACS', 'EINECS 270-173-7', 'DPNTDA', 'WFNA', 'Nitric acid, 1 M', '(-)-pareruptorin A', 'Nitric acid, 65%', 'hydroxidodioxidonitrogen', 'Nitric acid (67%)', 'ACMC-1AXGK', 'Nitric acid, red fuming', 'White fuming nitric acid', 'Nitric acid, 0.1 M', 'Nitric Acid Reagent ACS', 'EC 231-714-2', 'hydrogen trioxonitrate(1-)', 'Nitric acid, 65-70%', 'Nitric Acid Concentrate, 1N', 'WLN: PR N-O3X3', '68412-17-9', 'Nitric acid, p.a., 65%', 'Nitric acid (HNO3) 94.5% by weight or more HNO3', 'Nitric Acid: Electronic Grade', 'Nitric acid, 90% ACS Grade', 'Nitric acid, fuming, 99.5%', 'DTXSID5029685', 'Nitric acid, AR, 69-72%', 'Nitric acid, gallium salt ( )', 'Nitric acid, LR, 69-72%', '[NO2(OH)]', 'Concentrated Nitric Acid (70%)', 'Nitric acid, puriss., 64-66%', 'Nitric acid, reagent grade, >90%', 'BDBM50152970', 'AKOS015833449', 'Nitric acid, technical grade, 50.0%', 'NSC-177677', 'Nitric acid other than red fuming with >70% nitric acid [UN2031]  [Corrosive]', 'Nitric Acid Solution, 0.1N (N/10)', '78989-43-2', 'Nitric acid, 0.1N Standardized Solution', 'Nitric acid, 1.0N Standardized Solution', 'Nitric acid, 2.0N Standardized Solution', 'Nitric acid, extra pure, 69.0-71.0%', 'Nitric acid, red, fuming, HNO3 >90 %', 'Nitric acid, reagent grade, fuming, >90%', 'Nitrogen hydroxideoxide (N(OH)2O) (9CI)', 'FT-0689223', 'N0806', 'N1916', 'Nitric acid, puriss. p.a., >=65% (T)', 'C00244', 'D02313', 'Q83320', 'Nitric acid solution, ~32.5%, special quality', 'Nitric acid, Environmental Grade Plus, 68-70%', 'Nitric acid, 70%, purified by double-distillation', 'Nitric acid, p.a., ACS reagent, 68.0-70.0%', 'Nitric acid, red fuming [UN2032]  [Corrosive]', ""4,4-Dioctyl-cyclopenta[2,1-b :3,4-b' ]dithiophene"", 'Q27110015', 'Nitric acid other than red fuming with >70% nitric acid', 'Nitric acid, SAJ first grade, 69-70%, density: 1.42', '3088A493-74F8-4D19-8ABC-E572420B5F29', 'Nitric acid other than red fuming with not >70% nitric acid', 'Nitric acid, JIS special grade, 60.0-61.0%, density: 1.38', 'Nitric acid, JIS special grade, 65.0-66.0%, density: 1.40', 'Nitric acid, JIS special grade, 69.0-70.0%, density: 1.42', 'Nitric acid, puriss. p.a., ACS reagent, fuming, >=99.5%', 'Nitric acid, puriss. p.a., ACS reagent, reag. ISO, >=69%', 'Nitric acid, SAJ first grade, 60.0-62.0%, density: 1.38', 'Nitric acid, SAJ first grade, 65.0-66.0%, density: 1.40', '2,3,9,10,16,17-Hexachlorinated boron subphthalocyanine chloride', 'Nitric acid, 68-70%, Certified ACS Plus Grade Trace metal analyzed', 'Nitric acid, JIS special grade, >=97.0%, fuming, density: 1.52', 'Nitric acid, SAJ first grade, >=97.0%, fuming, density: 1.52', 'Nitric acid, 60.0-62.0%, SAJ super special grade, density: 1.38', 'Nitric acid, JIS special grade, 90.0-94.0%, fuming, density: 1.50', 'Nitric acid, puriss. p.a., 65% (Hg <=0.0000005%), >=65% (T)', 'Nitric acid, SAJ first grade, 90.0-94.0%, fuming, density: 1.50', 'Nitric acid, semiconductor grade PURANAL(TM) (Honeywell 17818), >=65%', 'Nitric acid, semiconductor grade PURANAL(TM) (Honeywell 17952), >=69%', 'Nitric acid concentrate, 0.1 M HNO3 in water (0.1N), eluent concentrate for IC', 'Nitric acid other than red fuming with not >70% nitric acid [UN2031]  [Corrosive]', 'Nitric acid, 60.0-62.0%, suitable for determination of toxic metals, density: 1.38', 'Nitric acid, 70%, purified by redistillation, >=99.999% trace metals basis', 'Nitric acid, p.a., ACS reagent, reag. ISO, reag. Ph. Eur., 68.5-69.5%', 'Nitric acid, semiconductor grade MOS PURANAL(TM) (Honeywell 17920), >=69%', 'Nitric acid, semiconductor grade VLSI PURANAL(TM) (Honeywell 17512), 69-71%', '153312-87-9', '309963-65-3', 'Nitric acid, 70%, meets analytical specification of BP, Ph??Eur, Ph??Fran??, USP, FCC, E339', 'Nitric acid, puriss. p.a., reag. ISO, reag. Ph. Eur., for determinations with dithizone, >=65%', 'Nitric acid, purum p.a., fuming, packed in coated, shock- and leak-protected glass bottle, >=99% (T)']"
205;nitrous acid;-1;HNO2;47.014;N(=O)O;24529;337.1;;-73.7;;;;-7.9;-5.3;-6.0;;7.5;;;['NITROUS ACID', 'Nitrosyl hydroxide', '7782-77-6', 'HNO2', 'Kyselina dusite', 'dioxonitric acid', 'UNII-T2I5UM75DN', 'hydroxidooxidonitrogen', 'HONO', 'Nitrite (NO2-)', 'CHEBI:25567', 'T2I5UM75DN', 'Kyselina dusite [Czech]', 'EINECS 231-963-7', 'HSDB 7801', 'Nitrogen dioxide ion', 'Nitrous acid, trans', 'NITROUSACID', 'Nitrogen peroxide ion', 'hydrogen dioxonitrate(1-)', '[NO(OH)]', 'CHEMBL1161681', 'DTXSID7064813', 'BDBM50147619', 'DB09112', 'C00088', 'Q207895', 'Q211891']
206;2-methylphenol;-1;C7H8O;108.14;CC1=CC=CC=C1O;335;342.6;;;;-70.5;;-10.7;-9.2;-9.4;;;;15;"['o-cresol', '2-Methylphenol', '95-48-7', 'Orthocresol', '2-hydroxytoluene', 'Phenol, 2-methyl-', '2-Cresol', 'o-methylphenol', 'o-Cresylic acid', 'o-Oxytoluene', 'o-Toluol', 'o-Hydroxytoluene', 'o-Methylphenylol', '1-Hydroxy-2-methylbenzene', 'ortho-cresol', 'o-Kresol', '2-methyl phenol', 'Cresol, ortho-', 'Cresol, o-', 'o-Kresol [German]', '2-Hydroxy-1-methylbenzene', 'Cresylic acid', '2-methyl-phenol', 'Cresol, o-isomer', 'hydroxy toluene', 'Phenol, methyl-', 'UNII-YW84DH5I7U', 'NSC 23076', 'Cresol mixture of isomers', '1-Methyl-2-hydroxybenzene', 'YW84DH5I7U', 'CHEBI:28054', 'MFCD00002226', 'TOLUENE,2-HYDROXY  (ORTHO-CRESOL)', 'o-Cresol [UN2076]  [Poison, Corrosive]', 'DSSTox_CID_1808', 'Cresol mixture of isomers;Methylphenol;Tricresol', 'DSSTox_RID_76341', 'WLN: QR B1', 'DSSTox_GSID_21808', 'CAS-95-48-7', 'Orthocresol [NF]', 'Cresols are organic compounds which are methylphenols. They are a widely occurring natural and manufactured group of aromatic organic compounds, which are categorized as phenols.', 'CCRIS 646', 'FEMA No. 3480', 'HSDB 1813', 'EINECS 202-423-8', 'ortho cresol', 'Methyl phenol', '2-methyiphenol', 'AI3-00137', 'JZ0', 'O-Cresol,(S)', 'Carvacrol derivative, 9', 'o-Cresol, >=99%', 'bmse000433', 'UN 2076 (Related)', 'EC 202-423-8', '2-Methylphenol (o-cresol)', 'ortho-cresol,2-methylphenol', 'SCHEMBL16002', 'MLS002454426', 'o-Cresol, analytical standard', 'BIDD:ER0677', 'CHEMBL46931', '3C7H8O', 'ACMC-1C144', 'DTXSID8021808', 'FEMA 3480', 'BDBM248166', 'HMS2268O24', 'LABOTEST-BB LTBB001400', 'ZINC901022', 'o-Cresol, for synthesis, 99.3%', '2-Methylphenol, analytical standard', 'NSC23076', 'NSC36809', 'Tox21_202305', 'Tox21_300021', 'NSC-23076', 'NSC-36809', 'STL194295', 'o-Cresol, ReagentPlus(R), >=99%', 'AKOS000119021', 'AS00217', 'MCULE-4124485112', 'NCGC00091534-01', 'NCGC00091534-02', 'NCGC00091534-03', 'NCGC00091534-04', 'NCGC00254140-01', 'NCGC00259854-01', 'o-Cresol, SAJ first grade, >=97.0%', 'SMR001252248', '2-Methylphenol 100 microg/mL in Methanol', 'FT-0656046', 'Z3651', '7520-EP2277867A2', '7520-EP2280003A2', '7520-EP2292227A2', '7520-EP2295426A1', '7520-EP2295427A1', '7520-EP2295435A1', '7520-EP2298751A2', '7520-EP2302015A1', '7520-EP2305683A1', '7520-EP2308861A1', '7520-EP2311839A1', '7520-EP2314584A1', '7520-EP2314589A1', '7520-EP2316470A2', '7520-EP2316832A1', '7520-EP2316833A1', '7520-EP2316837A1', 'C01542', '19034-EP2311811A1', '19034-EP2314576A1', '28670-EP2279750A1', '28670-EP2284146A2', '28670-EP2284147A2', '28670-EP2284165A1', '28670-EP2287159A1', '28670-EP2305673A1', '28670-EP2308838A1', '28670-EP2308865A1', '28670-EP2308877A1', '28670-EP2311815A1', '28670-EP2311834A1', '28670-EP2314579A1', '28670-EP2372017A1', '45193-EP2311821A1', '93911-EP2269977A2', '93911-EP2305625A1', '1-Hydroxyl 2-Methyl Benzene, 2-Hydroxyl Toluene', 'Q312708', 'J-006098', 'J-523819', 'F0001-2271', 'UNII-3JYG22FD73 component QWVGKYWNOKOFNN-UHFFFAOYSA-N', 'UNII-GF3CGH8D7Z component QWVGKYWNOKOFNN-UHFFFAOYSA-N']"