Number;IUPAC_name;Charge;Molecular Formula;Molecular Weight [g/mol];Isomeric SMILES;Pubchem CID;GasPhaseAcidity_B2PLYP//DLPNO-CCSD(T) [kcal/mol];GSolv_Ion_Water [kcal/mol];GSolv_Ion_DMSO [kcal/mol];GSolv_Ion_Acetonitrile [kcal/mol];GSolv_Ion_MeOH [kcal/mol];Gsolv_Neutral_Water_exp [kcal/mol];Gsolv_Neutral_DMSO_TZVPD-Fine [kcal/mol];Gsolv_Neutral_Acetonitrile_TZVPD-Fine [kcal/mol];Gsolv_Neutral_MeOH_TZVPD-Fine [kcal/mol];pka_water;pka_DMSO;pka_Acetonitrile;pka_MeOH;Synonyms
28;pyrrolidine;1;C4H9N;71.12;C1CCNC1;31268;219.3;-62.6;;-72.8;;-5.5;-3.9;-4.4;-6.2;11.3;;19.6;;['PYRROLIDINE', '123-75-1', 'Tetrahydropyrrole', 'Tetrahydro pyrrole', 'Azacyclopentane', 'Azolidine', 'Tetramethylenimine', 'Butylenimine', 'Perhydropyrrole', 'Prolamine', '1-Azacyclopentane', 'Tetramethyleneimine', 'Pyrrole, tetrahydro-', 'Pyrrolidine ring', 'pyrrolidin', 'UNII-LJU5627FYV', 'NSC 62781', 'Pyrrolidine, homopolymer', 'MFCD00005249', 'LJU5627FYV', 'CHEMBL22830', 'CHEBI:33135', '89014-29-9', 'FEMA No. 3523', 'CCRIS 6688', 'HSDB 120', 'EINECS 204-648-7', 'UN1922', 'BRN 0102395', 'pyrolidine', 'pyrollidine', 'pyrroldine', 'pyrrolodine', 'Pirrolidine', 'Pyrrollidine', 'AI3-24117', '(s)-pyrrolidine', '14-pyrrolidine', 'Pyrrolidine, FG', 'Pyrrolidine, 99%', 'Pyrrolidinepyrrolidine', 'ACMC-209aps', 'Pyrrolidine, >=99%', 'WLN: T5MTJ', 'EC 204-648-7', 'NCIOpen2_007788', 'UPCMLD00WV-121', '5-20-01-00162 (Beilstein Handbook Reference)', 'pyrrolidine LT phase at 135K', 'pyrrolidine LT phase at 205K', 'Pyrrolidine, distilled in glass', 'DTXSID3059559', 'FEMA 3523', 'Pyrrolidine - HT phase at 165K', 'Pyrrolidine - HT phase at 207K', 'AMY10044', 'NSC62781', 'STR00030', 'ZINC1690615', 'BDBM50026437', 'NSC-62781', 'STL182845', 'AKOS000119098', 'MCULE-2816679267', 'UN 1922', 'Pyrrolidine, puriss. p.a., >=99.0%', 'Pyrrolidine, analytical reference material', 'AB0105730', 'DB-000672', 'FT-0658759', 'P0576', 'Pyrrolidine - low temperature phase at 135K', 'Pyrrolidine - low temperature phase at 205K', 'Pyrrolidine [UN1922]  [Flammable liquid]', 'Pyrrolidine - high temperature phase at 165K', 'Pyrrolidine - high temperature phase at 207K', '3941-EP2269977A2', '3941-EP2269983A1', '3941-EP2269984A1', '3941-EP2269990A1', '3941-EP2269993A1', '3941-EP2270003A1', '3941-EP2270004A1', '3941-EP2270006A1', '3941-EP2270010A1', '3941-EP2270113A1', '3941-EP2272509A1', '3941-EP2272517A1', '3941-EP2272813A2', '3941-EP2272817A1', '3941-EP2272825A2', '3941-EP2272832A1', '3941-EP2272841A1', '3941-EP2272935A1', '3941-EP2272972A1', '3941-EP2272973A1', '3941-EP2274983A1', '3941-EP2275102A1', '3941-EP2275395A2', '3941-EP2275401A1', '3941-EP2275404A1', '3941-EP2275411A2', '3941-EP2275412A1', '3941-EP2275421A1', '3941-EP2275422A1', '3941-EP2275424A1', '3941-EP2277848A1', '3941-EP2277858A1', '3941-EP2277867A2', '3941-EP2277872A1', '3941-EP2277880A1', '3941-EP2280001A1', '3941-EP2280003A2', '3941-EP2280005A1', '3941-EP2280006A1', '3941-EP2280008A2', '3941-EP2280009A1', '3941-EP2280978A1', '3941-EP2281563A1', '3941-EP2281813A1', '3941-EP2281815A1', '3941-EP2281818A1', '3941-EP2281819A1', '3941-EP2281821A1', '3941-EP2281822A1', '3941-EP2284157A1', '3941-EP2286811A1', '3941-EP2287153A1', '3941-EP2287167A1', '3941-EP2288605A1', '3941-EP2289871A1', '3941-EP2289884A1', '3941-EP2289887A2', '3941-EP2289888A2', '3941-EP2289892A1', '3941-EP2289893A1', '3941-EP2292586A2', '3941-EP2292592A1', '3941-EP2292593A2', '3941-EP2292595A1', '3941-EP2292606A1', '3941-EP2292610A1', '3941-EP2292611A1', '3941-EP2292613A1', '3941-EP2292619A1', '3941-EP2292630A1', '3941-EP2294063A1', '3941-EP2295399A2', '3941-EP2295402A2', '3941-EP2295406A1', '3941-EP2295411A1', '3941-EP2295418A1', '3941-EP2295426A1', '3941-EP2295427A1', '3941-EP2295429A1', '3941-EP2295432A1', '3941-EP2295433A2', '3941-EP2297098A1', '3941-EP2298729A1', '3941-EP2298731A1', '3941-EP2298735A1', '3941-EP2298743A1', '3941-EP2298761A1', '3941-EP2298763A1', '3941-EP2298764A1', '3941-EP2298765A1', '3941-EP2298766A1', '3941-EP2298767A1', '3941-EP2298772A1', '3941-EP2298776A1', '3941-EP2298778A1', '3941-EP2301533A1', '3941-EP2301534A1', '3941-EP2301627A1', '3941-EP2301923A1', '3941-EP2301928A1', '3941-EP2301929A1', '3941-EP2301935A1', '3941-EP2302132A1', '3941-EP2305219A1', '3941-EP2305250A1', '3941-EP2305648A1', '3941-EP2305651A1', '3941-EP2305657A2', '3941-EP2305659A1', '3941-EP2305672A1', '3941-EP2305674A1', '3941-EP2305682A1', '3941-EP2305687A1', '3941-EP2305695A2', '3941-EP2305696A2', '3941-EP2305697A2', '3941-EP2305698A2', '3941-EP2308510A1', '3941-EP2308562A2', '3941-EP2308812A2', '3941-EP2308838A1', '3941-EP2308839A1', '3941-EP2308840A1', '3941-EP2308847A1', '3941-EP2308851A1', '3941-EP2308854A1', '3941-EP2308857A1', '3941-EP2308867A2', '3941-EP2308870A2', '3941-EP2308872A1', '3941-EP2308879A1', '3941-EP2311451A1', '3941-EP2311464A1', '3941-EP2311796A1', '3941-EP2311797A1', '3941-EP2311798A1', '3941-EP2311799A1', '3941-EP2311802A1', '3941-EP2311803A1', '3941-EP2311810A1', '3941-EP2311811A1', '3941-EP2311814A1', '3941-EP2311815A1', '3941-EP2311818A1', '3941-EP2311823A1', '3941-EP2311824A1', '3941-EP2311825A1', '3941-EP2311829A1', '3941-EP2311831A1', '3941-EP2311836A1', '3941-EP2311840A1', '3941-EP2311850A1', '3941-EP2314295A1', '3941-EP2314574A1', '3941-EP2314575A1', '3941-EP2314586A1', '3941-EP2314587A1', '3941-EP2314590A1', '3941-EP2315303A1', '3941-EP2316450A1', '3941-EP2316470A2', '3941-EP2316829A1', '3941-EP2316831A1', '3941-EP2316832A1', '3941-EP2316833A1', '3941-EP2316974A1', '3941-EP2371811A2', '3941-EP2371831A1', '3941-EP2372804A1', '3941-EP2374454A1', '3941-EP2378585A1', '5258-EP2270010A1', '5258-EP2272972A1', '5258-EP2272973A1', '5258-EP2277872A1', '5258-EP2284149A1', '5258-EP2292593A2', '5258-EP2305669A1', '5258-EP2308868A1', '108957-EP2275422A1', '108957-EP2284166A1', '108957-EP2292589A1', '108957-EP2298769A1', 'A805120', 'Pyrrolidine, >=99.5%, purified by redistillation', 'Q408898', 'Z57834050', 'F2190-0325']
29;piperidine;1;C5H11N;85.15;C1CCNCC1;8082;221.2;-60.1;;-70.2;-61.5;-5.1;-4.0;-4.6;-6.5;11.1;;18.9;11.1;['PIPERIDINE', '110-89-4', 'Hexahydropyridine', 'Cyclopentimine', 'Azacyclohexane', 'Cypentil', 'Hexazane', 'Piperidin', 'Pentamethyleneimine', 'Pentamethylenimine', 'Perhydropyridine', 'Pentamethyleneamine', 'Pyridine, hexahydro-', 'piperdine', 'UNII-67I85E138Y', 'CHEMBL15487', 'CHEBI:18049', 'MFCD00005979', '67I85E138Y', 'hexahydro-pyridine', 'Piperidin [German]', 'azinane', 'CCRIS 967', 'FEMA No. 2908', 'HSDB 114', 'Piperidine, puriss. p.a., >=99.0% (GC/T)', 'EINECS 203-813-0', 'UN2401', 'piperadine', 'pyperidine', '(Piperidinomethyl)polystyrene', 'N-piperidine', 'AI3-24114', 'Piperidine [UN2401] [Corrosive]', 'Piperidine-[d10]', 'Piperidine on Rasta Resin', 'DSSTox_CID_1165', 'EC 203-813-0', 'NCIMech_000312', 'Piperidine (Peptide Grade)', 'DSSTox_RID_75987', 'NCIOpen2_007828', 'DSSTox_GSID_21165', 'Piperidine, >=99%, FG', '(piperidinomethyl)-polystyrene', 'Piperidine, >=99%, FCC', 'Piperidine, analytical standard', 'GTPL5477', 'DTXSID6021165', 'FEMA 2908', 'Piperidine, ReagentPlus(R), 99%', 'STR00031', 'ZINC1529277', 'Tox21_201175', 'BDBM50026449', 'Piperidine [UN2401]  [Corrosive]', 'AKOS002309795', 'MCULE-4094049864', 'UN 2401', 'Piperidine, biotech. grade, >=99.5%', 'NCGC00248946-01', 'NCGC00258727-01', 'CAS-110-89-4', 'Piperidine, purum, >=96.0% (GC/T)', 'Piperidine, SAJ first grade, >=99.0%', 'FT-0655373', 'P0453', 'Piperidine, puriss. plus, >=99.5% (GC)', '2547-EP2269610A2', '2547-EP2269977A2', '2547-EP2269978A2', '2547-EP2269985A2', '2547-EP2269989A1', '2547-EP2269991A2', '2547-EP2269992A1', '2547-EP2269993A1', '2547-EP2270004A1', '2547-EP2270006A1', '2547-EP2270009A1', '2547-EP2270010A1', '2547-EP2271640A2', '2547-EP2272509A1', '2547-EP2272517A1', '2547-EP2272537A2', '2547-EP2272813A2', '2547-EP2272817A1', '2547-EP2272829A2', '2547-EP2272830A1', '2547-EP2272832A1', '2547-EP2272834A1', '2547-EP2272841A1', '2547-EP2272845A2', '2547-EP2272935A1', '2547-EP2272972A1', '2547-EP2272973A1', '2547-EP2274983A1', '2547-EP2275105A1', '2547-EP2275395A2', '2547-EP2275401A1', '2547-EP2275404A1', '2547-EP2275409A1', '2547-EP2275411A2', '2547-EP2275412A1', '2547-EP2275413A1', '2547-EP2275421A1', '2547-EP2275422A1', '2547-EP2275424A1', '2547-EP2277848A1', '2547-EP2277858A1', '2547-EP2277863A1', '2547-EP2277867A2', '2547-EP2277872A1', '2547-EP2277875A2', '2547-EP2277877A1', '2547-EP2277880A1', '2547-EP2277881A1', '2547-EP2279750A1', '2547-EP2280001A1', '2547-EP2280003A2', '2547-EP2280005A1', '2547-EP2280006A1', '2547-EP2280008A2', '2547-EP2280009A1', '2547-EP2280010A2', '2547-EP2281563A1', '2547-EP2281813A1', '2547-EP2281815A1', '2547-EP2281818A1', '2547-EP2281821A1', '2547-EP2281823A2', '2547-EP2284149A1', '2547-EP2284150A2', '2547-EP2284151A2', '2547-EP2284152A2', '2547-EP2284153A2', '2547-EP2284155A2', '2547-EP2284156A2', '2547-EP2284157A1', '2547-EP2284160A1', '2547-EP2284164A2', '2547-EP2284169A1', '2547-EP2286811A1', '2547-EP2287140A2', '2547-EP2287148A2', '2547-EP2287150A2', '2547-EP2287156A1', '2547-EP2287161A1', '2547-EP2287162A1', '2547-EP2287165A2', '2547-EP2287166A2', '2547-EP2287167A1', '2547-EP2289509A2', '2547-EP2289510A1', '2547-EP2289884A1', '2547-EP2289886A1', '2547-EP2289887A2', '2547-EP2289888A2', '2547-EP2289893A1', '2547-EP2289894A2', '2547-EP2292228A1', '2547-EP2292586A2', '2547-EP2292593A2', '2547-EP2292595A1', '2547-EP2292606A1', '2547-EP2292610A1', '2547-EP2292611A1', '2547-EP2292615A1', '2547-EP2292619A1', '2547-EP2292620A2', '2547-EP2292621A1', '2547-EP2292628A2', '2547-EP2295399A2', '2547-EP2295402A2', '2547-EP2295409A1', '2547-EP2295411A1', '2547-EP2295415A1', '2547-EP2295418A1', '2547-EP2295419A2', '2547-EP2295426A1', '2547-EP2295427A1', '2547-EP2295429A1', '2547-EP2295430A2', '2547-EP2295431A2', '2547-EP2295432A1', '2547-EP2295433A2', '2547-EP2295437A1', '2547-EP2295439A1', '2547-EP2295503A1', '2547-EP2298729A1', '2547-EP2298731A1', '2547-EP2298734A2', '2547-EP2298758A1', '2547-EP2298759A1', '2547-EP2298761A1', '2547-EP2298763A1', '2547-EP2298764A1', '2547-EP2298765A1', '2547-EP2298766A1', '2547-EP2298767A1', '2547-EP2298772A1', '2547-EP2298775A1', '2547-EP2298776A1', '2547-EP2301534A1', '2547-EP2301627A1', '2547-EP2301923A1', '2547-EP2301928A1', '2547-EP2301929A1', '2547-EP2301933A1', '2547-EP2301934A1', '2547-EP2301935A1', '2547-EP2301937A1', '2547-EP2301939A1', '2547-EP2302015A1', '2547-EP2302132A1', '2547-EP2305219A1', '2547-EP2305250A1', '2547-EP2305254A1', '2547-EP2305629A1', '2547-EP2305633A1', '2547-EP2305637A2', '2547-EP2305644A1', '2547-EP2305648A1', '2547-EP2305651A1', '2547-EP2305652A2', '2547-EP2305657A2', '2547-EP2305664A1', '2547-EP2305669A1', '2547-EP2305671A1', '2547-EP2305672A1', '2547-EP2305674A1', '2547-EP2305677A1', '2547-EP2305679A1', '2547-EP2305682A1', '2547-EP2305684A1', '2547-EP2305687A1', '2547-EP2305808A1', '2547-EP2308509A1', '2547-EP2308510A1', '2547-EP2308562A2', '2547-EP2308812A2', '2547-EP2308839A1', '2547-EP2308840A1', '2547-EP2308841A2', '2547-EP2308851A1', '2547-EP2308854A1', '2547-EP2308857A1', '2547-EP2308867A2', '2547-EP2308868A1', '2547-EP2308870A2', '2547-EP2308872A1', '2547-EP2308873A1', '2547-EP2308874A1', '2547-EP2308875A1', '2547-EP2308879A1', '2547-EP2308880A1', '2547-EP2308883A1', '2547-EP2309584A1', '2547-EP2311451A1', '2547-EP2311464A1', '2547-EP2311494A1', '2547-EP2311808A1', '2547-EP2311810A1', '2547-EP2311811A1', '2547-EP2311814A1', '2547-EP2311823A1', '2547-EP2311824A1', '2547-EP2311825A1', '2547-EP2311827A1', '2547-EP2311829A1', '2547-EP2311831A1', '2547-EP2311842A2', '2547-EP2311850A1', '2547-EP2314558A1', '2547-EP2314574A1', '2547-EP2314575A1', '2547-EP2314578A1', '2547-EP2314581A1', '2547-EP2314585A1', '2547-EP2314586A1', '2547-EP2314587A1', '2547-EP2314588A1', '2547-EP2314590A1', '2547-EP2314593A1', '2547-EP2316450A1', '2547-EP2316457A1', '2547-EP2316458A1', '2547-EP2316459A1', '2547-EP2316470A2', '2547-EP2316825A1', '2547-EP2316826A1', '2547-EP2316827A1', '2547-EP2316828A1', '2547-EP2316829A1', '2547-EP2316831A1', '2547-EP2316832A1', '2547-EP2316833A1', '2547-EP2316836A1', '2547-EP2316974A1', '2547-EP2371811A2', '2547-EP2371813A1', '2547-EP2371831A1', '2547-EP2372804A1', '2547-EP2374454A1', '2547-EP2374783A1', '2547-EP2374895A1', '2547-EP2377841A1', '2547-EP2378585A1', '2547-EP2380872A1', '7155-EP2311494A1', 'C01746', '34617-EP2301536A1', '34617-EP2301538A1', '34617-EP2311455A1', '59620-EP2275422A1', '59620-EP2292589A1', '59620-EP2295436A1', '59620-EP2295439A1', '59620-EP2298762A2', '59620-EP2298769A1', '59620-EP2298773A1', '59620-EP2308852A1', '59620-EP2371823A1', 'Piperidine, >=99.5%, purified by redistillation', 'Q410234', 'Piperidine solution, for peptide synthesis, 20% in DMF', '(Piperidinomethyl)polystyrene, extent of labeling: ~3.5 mmol/g base loading', 'Piperidine, polymer-bound, extent of labeling: 3.0-4.0 mmol/g loading, 1 % cross-linked with divinylbenzene', 'StratoSpheres(TM) PL-PIP (Piperidine) resin, 50-100 mesh, extent of labeling: 3.0-4.0 mmol/g loading, 1 % cross-linked']
30;azepane;1;C6H13N;99.17;C1CCCNCC1;8119;221.8;-59.3;;;;-4.9;-4.5;-5.2;-7.0;11.1;;;;['Hexamethyleneimine', 'Azepane', '111-49-9', 'Hexahydroazepine', 'Perhydroazepine', 'Hexahydro-1H-azepine', 'Homopiperidine', 'HEXAMETHYLENIMINE', '1H-Azepine, hexahydro-', 'Azacycloheptane', 'azepan', '1-Azacycloheptane', 'Hexamethylene imine', 'Azepine, hexahydro-', 'Cyclohexamethylenimine', 'UNII-CZD076G73R', 'NSC 16236', 'MFCD00006934', 'CZD076G73R', 'G 0', 'CHEBI:32616', 'DSSTox_CID_6879', 'DSSTox_RID_78234', 'DSSTox_GSID_26879', 'Cycloheptane, 1-aza-', 'CAS-111-49-9', 'HSDB 562', 'EINECS 203-875-9', 'UN2493', 'BRN 0001084', 'CP 18407', 'AI3-26610', 'CCRIS 8886', 'Azepane #', 'Hexamethyleneimine, 99%', 'WLN: T7MTJ', 'Hexamethylene imine (HMI)', 'EC 203-875-9', '5-20-04-00003 (Beilstein Handbook Reference)', 'CHEMBL1375444', 'DTXSID1026879', '2,3,4,5,6,7-hexahydroazepine', 'ACT03374', 'CS-B0958', 'NSC16236', 'STR01425', 'ZINC3636476', 'Tox21_201482', 'Tox21_303304', '7537AF', 'BBL004547', 'NSC-16236', 'STL124104', 'AKOS000119078', 'MCULE-6467465155', 'UN 2493', '2,3,4,5,6,7-Hexahydro-1H-azepine', 'NCGC00091040-01', 'NCGC00091040-02', 'NCGC00257117-01', 'NCGC00259033-01', 'BP-30036', 'H0092', '5725-EP2272817A1', '5725-EP2279750A1', '5725-EP2308848A1', 'D77224', '17251-EP2272517A1', '17251-EP2275404A1', '17251-EP2280001A1', '17251-EP2295411A1', '17251-EP2295426A1', '17251-EP2295427A1', '17251-EP2298731A1', '17251-EP2301627A1', '17251-EP2301928A1', '17251-EP2308840A1', '17251-EP2311831A1', '17251-EP2314586A1', '27150-EP2272832A1', '27150-EP2292611A1', '27150-EP2298763A1', '27150-EP2308857A1', '27150-EP2314575A1', '54042-EP2281818A1', '54042-EP2289887A2', '54042-EP2289888A2', '54042-EP2308510A1', '54042-EP2308562A2', '54042-EP2371811A2', '107280-EP2277858A1', '107280-EP2298766A1', 'Hexamethyleneimine [UN2493]  [Flammable liquid]', 'Q421530', 'J-002592', 'J-521455', 'Z57127566', 'F2190-0324']