Number;IUPAC_name;Charge;Molecular Formula;Molecular Weight [g/mol];Isomeric SMILES;Pubchem CID;GasPhaseAcidity_B2PLYP//DLPNO-CCSD(T) [kcal/mol];GSolv_Ion_Water [kcal/mol];GSolv_Ion_DMSO [kcal/mol];GSolv_Ion_Acetonitrile [kcal/mol];GSolv_Ion_MeOH [kcal/mol];Gsolv_Neutral_Water_exp [kcal/mol];Gsolv_Neutral_DMSO_TZVPD-Fine [kcal/mol];Gsolv_Neutral_Acetonitrile_TZVPD-Fine [kcal/mol];Gsolv_Neutral_MeOH_TZVPD-Fine [kcal/mol];pka_water;pka_DMSO;pka_Acetonitrile;pka_MeOH;Synonyms
175;4-methoxybenzoic acid;-1;C8H8O3;152.15;COC1=CC=C(C=C1)C(=O)O;7478;335.0;;;;-72.9;;-14.0;-12.1;-12.4;;;;9.8;"['4-METHOXYBENZOIC ACID', 'p-Anisic acid', '100-09-4', 'ANISIC ACID', 'p-Methoxybenzoic acid', '4-Anisic acid', 'Benzoic acid, 4-methoxy-', 'Draconic acid', 'para-anisic acid', 'P-Methoxy Benzoic Acid', 'ANISIC ACID, PARA', '4-methoxy-benzoic acid', 'Kyselina 4-methoxybenzoova', 'UNII-4SB6Y7DMM3', 'MFCD00002542', '1335-08-6', 'Methoxybenzoic acid', '4SB6Y7DMM3', 'CHEBI:40813', '4-Methoxybenzoic acid;Draconic acid', 'p-methoxybenzoate', '73424-02-9', 'Anisic acid, p-isomer', '4-Methoxy benzoic acid', 'Kyselina 4-methoxybenzoova [Czech]', 'EINECS 202-818-5', 'NSC 32742', 'BRN 0508910', 'anisoic acid', 'AI3-00893', 'EINECS 215-618-8', '4-methoxylbenzoic acid', '1sv3', 'paramethoxy benzoic acid', 'ACMC-1BLVJ', 'P-ANISIC ACID,', '4-(methoxy)benzoic acid', 'ANISIC ACID(P-)', '4-(methyloxy)benzoic acid', 'ANISIC ACID, 4-', 'bmse000356', 'bmse010012', 'NCIOpen2_004706', 'SCHEMBL43335', '4-10-00-00346 (Beilstein Handbook Reference)', 'CHEMBL21932', 'RARECHEM AL BO 0059', 'DTXSID4059205', 'SCHEMBL12015259', 'FEMA 3945', 'p-Anisic acid, >=99%, FG', 'TIMTEC-BB SBB037872', 'NSC7926', 'OTAVA-BB 1779304', 'P-METHYLHYDROXYBENZOIC ACID', 'BDBM243072', 'HMS1760M22', 'HMS3604D05', 'HMS3746I21', 'p-Anisic acid, analytical standard', 'ZINC332748', 'BCP29617', 'CS-B1766', 'HY-N1394', 'NSC-7926', 'NSC32742', 'STR02874', 'AKOS BBS-00003715', 'p-Anisic acid, natural, 99%, FG', 'AB2885', 'HTS006404', 'LABOTEST-BB LT00781808', 'LABOTEST-BB LT03327667', 'LABOTEST-BB LT03330798', 'NSC-32742', 'STK498216', 'AKOS000118883', 'AM86179', 'AS00727', 'AS03913', 'DB02795', 'LS11457', 'MCULE-7627915900', 'PS-3382', 'AC-11353', 'BP-10768', 'SY001719', 'DB-023671', 'A0482', 'FT-0653005', 'FT-0658638', 'FT-0671155', '4-Methoxybenzoic acid, ReagentPlus(R), 99%', 'C02519', 'p-Anisic acid, Vetec(TM) reagent grade, 98%', '31543-EP2308858A1', '31543-EP2311816A1', '31543-EP2311817A1', 'A800042', 'AE-848/32075009', 'Q-200489', 'Q4566032', 'Melting point standard 182-184C, analytical standard', 'Z56931884', 'F1335-0001', '4-Methoxybenzoic acid, certified reference material, TraceCERT(R)', '4-Methoxy-benzoic Acid; 4-Anisic acid; Anisic acid pound>>p-Anisic acid pound>>p-Methoxybenzoic acid']"
176;4-methylbenzoic acid;-1;C8H8O2;136.15;CC1=CC=C(C=C1)C(=O)O;7470;334.8;;;;-71.8;;-12.4;-10.6;-11.1;;;;9.5;['4-Methylbenzoic acid', 'P-TOLUIC ACID', '99-94-5', '4-Toluic acid', 'p-Methylbenzoic acid', 'Crithminic acid', 'Benzoic acid, 4-methyl-', 'p-Toluylic acid', 'p-Carboxytoluene', 'para-Toluic acid', '4-Methyl-Benzoic Acid', 'Toluate', 'Toluenecarboxylic acid', 'UNII-A26GBX5SSV', 'para toluic acid', 'NSC 2215', 'MFCD00002565', '4-Methyl benzoic acid', 'A26GBX5SSV', 'CHEBI:36635', 'Supported benzoic acid  (100-200/2.5-3.0)', 'p-toluicacid', '4MA', 'EINECS 202-803-3', 'BRN 0507600', 'Crithmic acid', 'rho-toluic acid', 'AI3-15627', '4-methylbenzic acid', 'p-methyl benzoic acid', 'p-Tolylcarboxylic acid', 'ACMC-209sek', 'p-Toluic acid, 98%', 'Benzoic acid,4-methyl-', 'DSSTox_CID_1618', 'bmse000414', 'WLN: QVR D1', 'DSSTox_RID_76238', 'NCIOpen2_001271', 'SAMPL4, O2', 'DSSTox_GSID_21618', 'SCHEMBL93638', 'SUPPORTED BENZOIC ACID', '4-methylbenzenecarboxylic acid', 'CHEMBL21708', 'DIETHYLETHYLCHLOROMALONATE', 'RARECHEM AL BO 0067', 'DTXSID6021618', 'TIMTEC-BB SBB040516', 'NSC2215', '2420-97-5 (cadmium salt)', 'BDBM197303', 'p-Toluic acid, analytical standard', 'ZINC330134', 'CS-D0602', 'NSC-2215', 'AKOS BBS-00003712', 'Tox21_201091', 'BBL005649', 'HTS006398', 'LABOTEST-BB LT00798642', 'STK498227', 'AKOS000119644', 'AC-3061', 'AM10618', 'AS00864', 'BS-3777', 'MCULE-2497536187', 'CAS-99-94-5', 'OTAVA-BB 7119561590', '4-Methylbenzoic acid4-Methylbenzoic acid', 'NCGC00091128-01', 'NCGC00091128-02', 'NCGC00258643-01', 'HY-76547', 'SY003713', 'FT-0654542', 'T0293', 'C01454', 'D70680', 'p-Toluic acid, Vetec(TM) reagent grade, 98%', '31538-EP2308858A1', '31538-EP2311816A1', '31538-EP2311817A1', 'A846107', 'AB-131/40170882', '4-Methylbenzoic acid(Flakes or Chunks or Granular)', 'Q1607905', 'W-100006', 'Z57902424', 'F1679-0157', 'UNII-I889W3548N component LPNBBFKOUUSUDB-UHFFFAOYSA-N']
177;4-nitrobenzoic acid;-1;C7H5NO4;167.12;C1=CC(=CC=C1C(=O)O)[N+](=O)[O-];6108;322.4;;-65.1;-49.2;-63.6;;-16.0;-13.4;-13.6;;9;18.7;8.3;['4-NITROBENZOIC ACID', 'p-Nitrobenzoic acid', '62-23-7', 'Benzoic acid, 4-nitro-', 'Nitrodracylic acid', '4-Nitrodracylic acid', '1-Carboxy-4-nitrobenzene', 'p-Nitrobenzenecarboxylic acid', 'Benzoic acid, p-nitro-', '4-Nitro-benzoic acid', 'Kyselina p-nitrobenzoova', 'p-Nitrodracylic acid', 'para-nitrobenzoic acid', 'UNII-G83NWR61OW', 'NSC 7707', 'MFCD00007352', 'p-nitro benzoic acid', 'G83NWR61OW', 'CHEMBL101263', 'CHEBI:262350', 'DSSTox_CID_966', 'DSSTox_RID_75894', 'DSSTox_GSID_20966', 'CAS-62-23-7', '1044278-58-1', 'CCRIS 1185', 'HSDB 2140', 'Kyselina p-nitrobenzoova [Czech]', 'EINECS 200-526-2', 'AI3-00149', 'p-nitro-benzoicacid', '4NB', 'p-Carboxynitrobenzene', 'p-nitro-benzoic acid', '4- nitrobenzoic acid', '4-Nitro benzoic acid', 'WLN: WNR DVQ', 'ACMC-209n0y', 'EC 200-526-2', '4-Nitrobenzoic acid, 98%', 'SCHEMBL43476', '4-Nitrobenzenecarboxylic acid', 'PARA NITROBENZOIC ACID', 'MLS002454442', 'DTXSID3020966', 'SCHEMBL15630318', 'AMY8937', 'NSC7707', 'HMS3041D05', 'NSC-7707', 'STR01385', 'ZINC1688307', 'Tox21_201258', 'Tox21_300131', 'BDBM50405310', 'STL168880', '4-Nitrobenzoic acid, puriss., 99%', 'AKOS000118872', 'AKOS015831344', 'AKOS024268501', 'CS-W020075', 'LS10118', 'MCULE-9990648682', 'NCGC00091607-01', 'NCGC00091607-02', 'NCGC00091607-03', 'NCGC00091607-04', 'NCGC00253917-01', 'NCGC00258810-01', 'AC-10993', 'BP-30196', 'SMR001252222', 'SY002161', 'A8599', 'FT-0619175', 'N0156', 'C18625', 'D70606', '4-Nitrobenzoic acid, purum, >=98.0% (HPLC)', 'AE-562/40227261', '4-Nitrobenzoic acid, Vetec(TM) reagent grade, 98%', 'Q2823227', 'W-105029', 'Z57127484', 'F2191-0089', '4-Nitrobenzoic acid, United States Pharmacopeia (USP) Reference Standard']
178;4-tert-butylbenzoic acid;-1;C11H14O2;178.23;CC(C)(C)C1=CC=C(C=C1)C(=O)O;7403;;;;;;;-13.2;-11.8;-12.3;;;;9.6;['4-tert-Butylbenzoic acid', '98-73-7', '4-(tert-butyl)benzoic acid', 'P-TERT-BUTYLBENZOIC ACID', 'TBBA', 'Benzoic acid, 4-(1,1-dimethylethyl)-', 'Benzoic acid, p-tert-butyl-', '4-t-butylbenzoic acid', '4-tert-Butyl-benzoic acid', '4-tert-Butylbenzoicacid', 'p-t-Butylbenzoic acid', 'NSC 4802', 'UNII-43Z7T3VN0R', 'Kyselina p-terc.butylbenzoova', 'CHEMBL93746', '43Z7T3VN0R', 'CHEBI:34443', '4-(1,1-dimethylethyl)benzoic acid', '4-tert-butylbenzoate', 'Benzoic acid, 4-tert-butyl-', 'HSDB 5321', 'EINECS 202-696-3', 'Kyselina p-terc.butylbenzoova [Czech]', 'BRN 0607545', 'AI3-28522', 'CCRIS 9443', 'p-t-butyl benzoic acid', 'p-sec-Butylbenzoic acid', '4-t-butyl benzoic acid', '4-tert -butylbenzoic acid', '4-tert-butyl benzoic acid', 'p-(t-butyl)-benzoic acid', 'EC 202-696-3', '4-tertiary-butylbenzoic acid', 'ACMC-1BP63', 'DSSTox_CID_20703', 'DSSTox_RID_79554', 'DSSTox_GSID_40703', 'SCHEMBL36693', '4-(tert-butyl)-benzoic acid', '4-~{tert}-butylbenzoic acid', '4-09-00-01884 (Beilstein Handbook Reference)', 'BIDD:ER0699', 'Benzoic acid,1-dimethylethyl)-', 'DTXSID0040703', '4-tert-Butylbenzoic acid, 99%', 'NSC4802', 'P-Tert-Butylbenzoic Acid, 99%', 'BENZOIC ACID,4-TERT.BUTYL', 'ZINC388305', 'NSC-4802', 'Tox21_301337', 'BDBM50405320', 'MFCD00002563', 'STK724072', 'p-tert-Butylbenzoic acid  (P-TBBA)', 'AKOS000160810', 'BS-3966', 'CM12555', 'CS-W017327', 'MCULE-5279293567', 'WLN: QVR XX1 & 1 & 1', 'CAS-98-73-7', 'NCGC00164066-01', 'NCGC00255598-01', 'AC-10999', 'AM20060764', 'B0717', 'BB 0221132', 'FT-0619495', 'D77809', 'Q2823226', 'W-100065', 'F2191-0110', 'Z256708702', 'UNII-UGL7Q68L1S component KDVYCTOWXSLNNI-UHFFFAOYSA-N', 'p-tert-Butylbenzoic acid-Benzoic acid, 4-(1,1-dimethylethyl)-']
179;4-tert-butylphenol;-1;C10H14O;150.22;CC(C)(C)C1=CC=C(C=C1)O;7393;;;;;;;-11.8;-10.6;-10.9;;;;14.6;['4-tert-Butylphenol', '98-54-4', '4-(tert-Butyl)phenol', 'p-tert-Butylphenol', 'Butylphen', 'PTBP', '4-(1,1-Dimethylethyl)phenol', 'Phenol, 4-(1,1-dimethylethyl)-', '4-t-Butylphenol', 'p-t-Butyl phenol', 'Phenol, p-tert-butyl-', 'p-t-Butylphenol', 'p-terc.Butylfenol', '4-tert-butyl-phenol', '1-Hydroxy-4-tert-butylbenzene', 'Ucar butylphenol 4-T', 'para-tertiary-butylphenol', 'Phenol, p-(tert-butyl)-', '4-tert-butyl phenol', 'Ucar butylphenol 4-T flake', 'UNII-O81VMW36CV', 'NSC 3697', 'PARA-TERT-BUTYLPHENOL', 'p-tert-butyl-phenol', 'CHEBI:34444', 'O81VMW36CV', 'CHEMBL16217', 'DTXSID1020221', 'FEMA 3918', 'MFCD00002367', 'NCGC00159377-02', 'NCGC00159377-04', 'DSSTox_CID_221', 'DSSTox_RID_75442', 'DSSTox_GSID_20221', '4-Tert-Butylpheno', 'Caswell No. 130E', 'p-terc.Butylfenol [Czech]', 'CAS-98-54-4', '4-tertiary-butylphenol', 'Phenol, 4-tert-butyl-', 'EINECS 202-679-0', 'EPA Pesticide Chemical Code 064113', 'AI3-00126', '4-TERTIARY BUTYL PHENOL', 'p-tertbutylphenol', '4-tertbutylphenol', '4tert-butylphenol', 'Lowinox PTBT', 'Lowinox TBMX', 'p-tert butylphenol', 'para-t-butylphenol', '4- t-butylphenol', '4-t-butyl phenol', 'p-tert-butyl phenol', 'p-tert.-butylphenol', '4-tert.-butylphenol', 'Lowinox 070', 'p-tert.-butyl phenol', 'p-tertiary butylphenol', '4-tert.-butyl phenol', '4-tert.-butyl-phenol', 'paratert.-butyl phenol', 'p-(Tert-butyl)-Phenol', 'para-tert. butyl phenol', 'para-tert.-butyl phenol', 'para-tertiary butylphenol', 'para-tertiary-butyl phenol', 'Epitope ID:119706', 'EC 202-679-0', '4-tert-Butylphenol, 99%', 'SCHEMBL19157', 'BIDD:ER0239', '4-(1, 1-Dimethylethyl)phenol', '4-(1,1-Dimethylethyl)-Phenol', 'HSDB 8434', 'QHPQWRBYOIRBIT-UHFFFAOYSA-', 'NSC3697', 'LABOTEST-BB LTBB002519', 'CS-D1475', 'NSC-3697', 'ZINC1666982', '4-tert-Butylphenol, >=99%, FG', 'Tox21_111617', 'Tox21_202326', 'Tox21_300103', '4-(1,1-Dimethylethyl)phenol, 9CI', 'BBL018706', 'BDBM50410495', 'STK397447', '2-(4-Hydroxyphenyl)-2-methylpropane', 'AKOS000119700', 'Tox21_111617_1', 'AS00221', 'MCULE-9877285241', '4-tert-Butylphenol, analytical standard', 'WLN: QR DX1 & 1 & 1', 'NCGC00159377-03', 'NCGC00159377-05', 'NCGC00159377-06', 'NCGC00254213-01', 'NCGC00259875-01', 'AS-14327', 'K768', '4-(1,1-DIMETHYL-1-ETHYL)PHENOL', 'DB-080546', 'AM20050202', 'B0230', 'B0735', 'FT-0688077', '4-tert-Butylphenol, puriss., >=99.0% (GC)', '4-tert-Butylphenol, purified by sublimation, 99%', 'AE-562/40191182', 'SR-01000944715', 'Q2306557', 'SR-01000944715-1', 'Z57127886', '4-tert-Butylphenol Zone Refined (number of passes:19)', '4-tert-Butylphenol, Zone Refined (number of passes:19)', 'F0001-2318']
180;7H-purin-6-amine;-1;C5H5N5;135.13;C1=NC2=NC=NC(=C2N1)N;190;329.9;;-69.1;;;;-19.5;-15.3;-18.3;;14.2;;;"['adenine', '73-24-5', '1H-Purin-6-amine', '6-Aminopurine', '9H-Purin-6-amine', 'Vitamin B4', '7H-Purin-6-amine', 'Adenin', 'Adeninimine', 'Leuco-4', '6-Amino-1H-purine', '6-Amino-3H-purine', '6-Amino-7H-purine', '6-Amino-9H-purine', '1,6-Dihydro-6-iminopurine', '3,6-Dihydro-6-iminopurine', 'Purine, 6-amino-', 'USAF CB-18', '1H-Purine, 6-amino', 'ADE', '9H-Purine, 1,6-dihydro-6-imino-', '1H-Purine-6-amine', 'CCRIS 2556', 'AI3-50679', '3H-Purin-6(7H)-imine', 'NSC 14666', 'UNII-JAC85A2161', '9H-Purine-6-amine', '9H-purin-6-ylamine', 'CHEBI:16708', '1H-Purine, 6-amino-', 'MFCD00041790', '1H-purin-6(9H)-imine', 'CHEMBL226345', '134434-48-3', '134434-49-4', '134454-76-5', '66224-66-6', 'JAC85A2161', '6H-Purin-6-imine, 1,7-dihydro-, (Z)- (9CI)', '6H-Purin-6-imine, 1,9-dihydro-, (E)- (9CI)', '6H-Purin-6-imine, 3,7-dihydro-, (Z)- (9CI)', '6H-Purin-6-imine, 3,9-dihydro-, (Z)- (9CI)', 'NSC-14666', '134461-75-9', 'Adenine [JAN]', 'NCGC00094856-01', 'Pedatisectine B', 'DSSTox_CID_2557', 'DSSTox_RID_76627', 'DSSTox_GSID_22557', 'adenine-ring', 'CAS-73-24-5', 'Leucon (TN)', 'Adenine (8CI)', 'Adenine (JAN/USP)', 'Adenine [USP:JAN]', 'SR-05000001754', '6-Aminopurine (Adenine)', 'EINECS 200-796-1', '3H-PURIN-6-AMINE', '1H-Purin-6-amine (9CI)', '3H-Purin-6-amine (9CI)', '3h-adenine', '6-amino purine', '6-amino-Purine', 'purin-6-amine', '1jys', '1nli', '1wei', '2pqj', '3kpv', '[3H]adenine', 'Adenine, 1', 'Adenine,(S)', 'ALBB-005925', '7H-purin-6-ylamine', '9H-Purin-6-yl-amin', 'Adenine-[15N2]', 'Spectrum_001106', '2p8n', '9H-Purin-6-yl-amine', 'SpecPlus_000535', 'Adenine, >=99%', '9H-Purin-6-amine #', 'Spectrum2_000583', 'Spectrum3_000616', 'Spectrum4_001891', 'Spectrum5_000542', '6-Aminopurine;Vitamin B4', '3H-purin-6(9H)-imine', 'bmse000060', 'bmse000861', 'bmse000995', 'Epitope ID:140097', 'SCHEMBL8110', '6-Aminopurine, Vitamin B4', 'ACMC-1BC21', 'Oprea1_057274', 'US9138393, Adenine', 'US9144538, Adenine', 'BSPBio_002152', 'KBioGR_002447', 'KBioGR_002562', 'KBioSS_001586', 'KBioSS_002571', 'ZINC882', '71660-30-5', 'MLS001066342', 'DivK1c_006631', 'SPECTRUM1500807', 'SPBio_000426', 'GTPL4788', '9H-Purine,6-dihydro-6-imino-', 'DTXSID6022557', 'BDBM33218', 'KBio1_001575', 'KBio2_001586', 'KBio2_002562', 'KBio2_004154', 'KBio2_005130', 'KBio2_006722', 'KBio2_007698', 'KBio3_001652', 'KBio3_003040', '1,9-Dihydro-6H-purin-6-imine', 'Adenine 100 microg/mL in Water', 'cMAP_000085', '7H-Purin-6-amine, min. 95%', 'BCPP000433', 'BDBM181146', 'HMS1921I14', 'HMS2092K20', 'HMS2269I04', 'Pharmakon1600-01500807', 'BCP02865', 'HY-B0152', 'NSC14666', 'VCA70030', 'Tox21_111348', 'Tox21_302108', 'BBL007925', 'CA0118', 'CCG-38506', 'HTS027705', 'NSC757793', 's1981', 'STK387542', 'WLN: T56 BM DN FN HNJ IZ', 'AKOS000118903', 'AKOS005171607', 'Tox21_111348_1', '(Z)-3,9-Dihydro-6H-purin-6-imine', 'AC-2028', 'AM83908', 'BCP9000233', 'CS-1984', 'DB00173', 'MCULE-6556342774', 'NSC-757793', 'SDCCGMLS-0066584.P001', 'NCGC00094856-02', 'NCGC00094856-03', 'NCGC00094856-05', 'NCGC00255120-01', '66224-67-7', '66224-69-9', '71660-29-2', 'AS-11841', 'BL008313', 'NCI60_000998', 'SMR000471871', 'SBI-0052324.P002', 'Adenine, Vetec(TM) reagent grade, >=99%', 'DB-013503', 'A0149', 'FT-0620943', 'FT-0656198', '4175-EP2270010A1', '4175-EP2270015A1', '4175-EP2270505A1', '4175-EP2272517A1', '4175-EP2275404A1', '4175-EP2292088A1', '4175-EP2292593A2', '4175-EP2295441A2', '4175-EP2295503A1', '4175-EP2295550A2', '4175-EP2298783A1', '4175-EP2301536A1', '4175-EP2301538A1', '4175-EP2303884A1', '4175-EP2305250A1', '4175-EP2305808A1', '4175-EP2311455A1', '4175-EP2316452A1', '73A245', 'Adenine, suitable for cell culture, BioReagent', 'C00147', 'D00034', 'P50008', 'Q15277', 'Z-1043', 'AB00052833-18', 'AB00052833-19', 'AB00052833_20', 'AB00052833_22', 'AB00052833_23', 'AB00052833_24', 'A935233', 'Q-200595', 'SR-05000001754-1', 'SR-05000001754-2', 'W-106856', 'Adenine, BioReagent, plant cell culture tested, >=99%', 'Adenine, European Pharmacopoeia (EP) Reference Standard', 'F0001-1848', 'Z1250132272', '6379C0E0-C1BB-4087-96C5-1DE281B8EA4C', 'Adenine, United States Pharmacopeia (USP) Reference Standard', 'Adenine, Pharmaceutical Secondary Standard; Certified Reference Material']"
181;benzamide;-1;C7H7NO;121.14;C1=CC=C(C=C1)C(=O)N;2331;348.1;;-68.8;;;;-13.6;-11.7;-12.6;;23.4;;;['Benzamide', '55-21-0', 'Benzoylamide', 'Benzoic acid amide', 'Phenylcarboxyamide', 'Phenylcarboxamide', 'Benzenecarboxamide', 'Amid kyseliny benzoove', 'Amid kyseliny benzoove [Czech]', 'NSC 3114', 'Phenyl Carboxyamide', 'Benzamide, homopolymer', 'BENZOIC ACID,AMIDE', 'MFCD00007968', 'UNII-6X80438640', 'CHEMBL267373', 'CHEBI:28179', '6X80438640', '55738-52-8', 'CCRIS 4594', 'HSDB 6360', 'EINECS 200-227-7', 'benzeneamide', 'benzimide', 'BRN 0385876', 'N-benzoylamine', 'benzoyl nitrogen', 'AI3-01031', 'benzene carboxamide', 'benzene-carboxamide', 'Benzamide, 99%', 'WLN: ZVR', 'benzene carboximidoic acid', 'PhC(O)NH2', 'Lopac-B-2009', 'ACMC-1AZ9T', 'DSSTox_CID_1709', 'bmse000668', 'PhC(=O)NH2', 'DSSTox_RID_76288', 'DSSTox_GSID_21709', 'Lopac0_000160', 'SCHEMBL16352', '4-09-00-00725 (Beilstein Handbook Reference)', 'benzamide (ACD/Name 4.0)', 'MLS000069472', 'Benzamide, p.a., 98.0%', 'DTXSID0021709', 'NSC3114', 'HMS2231M11', 'HMS3260O22', 'HMS3371I16', 'HMS3885L18', 'ZINC152996', 'CS-Z0019', 'HY-Z0283', 'NSC-3114', 'Tox21_200621', 'Tox21_500160', 'BDBM50106187', 's4715', 'STK069333', 'AKOS000118773', 'CCG-204255', 'LP00160', 'MCULE-2811211507', 'SDCCGSBI-0050148.P002', 'CAS-55-21-0', 'Benzamide, purum, >=98.0% (HPLC)', 'NCGC00015142-01', 'NCGC00015142-02', 'NCGC00015142-03', 'NCGC00015142-04', 'NCGC00015142-05', 'NCGC00015142-06', 'NCGC00015142-07', 'NCGC00091355-01', 'NCGC00091355-02', 'NCGC00091355-03', 'NCGC00258175-01', 'NCGC00260845-01', 'BP-21224', 'DS-17194', 'SMR000059089', 'SY047098', 'Benzamide, Vetec(TM) reagent grade, 98%', 'B0012', 'B0220', 'EU-0100160', 'FT-0622630', 'FT-0622631', 'AZ0001-0025', 'B 2009', 'Benzamide, purified by sublimation, >=99.5%', 'C09815', 'D70176', '12078-EP2272827A1', '12078-EP2275469A1', '12078-EP2284157A1', '12078-EP2284169A1', '12078-EP2287161A1', '12078-EP2287162A1', '12078-EP2287940A1', '12078-EP2289894A2', '12078-EP2289965A1', '12078-EP2292593A2', '12078-EP2295061A1', '12078-EP2295402A2', '12078-EP2295413A1', '12078-EP2295421A1', '12078-EP2295424A1', '12078-EP2295550A2', '12078-EP2298076A1', '12078-EP2298077A1', '12078-EP2298731A1', '12078-EP2298828A1', '12078-EP2300455A2', '12078-EP2301353A1', '12078-EP2301929A1', '12078-EP2301935A1', '12078-EP2301983A1', '12078-EP2305031A1', '12078-EP2305034A1', '12078-EP2305035A1', '12078-EP2305662A1', '12078-EP2305674A1', '12078-EP2305687A1', '12078-EP2308848A1', '12078-EP2308858A1', '12078-EP2311494A1', '12078-EP2314583A1', '12078-EP2314585A1', '12078-EP2316825A1', '12078-EP2316831A1', '12078-EP2371810A1', '74166-EP2308857A1', 'A830526', 'Q417731', 'SR-01000075601', 'SR-01000075601-1', 'Benzamide, zone-refined, purified by sublimation, 99.9%', 'F3145-2903', 'Sulfabenzamide|Sulfabenzid|Sulfabenzide|Sulfabenzoylamide|N-Sulfamylbenzamide']
182;2-phenylacetamide;-1;C8H9NO;135.16;C1=CC=C(C=C1)CC(=O)N;7680;;;;;;;-12.9;-11.6;-12.3;;24.7;;;['2-PHENYLACETAMIDE', '103-81-1', 'Benzeneacetamide', 'Phenylacetamide', 'alpha-Toluamide', 'alpha-Phenylacetamide', 'Phenylacetic acid amide', 'Acetamide, 2-phenyl-', 'Phenyl-beta-acetylamine', '2-phenyl-Acetamide', 'alpha-Toluimidic acid', '.alpha.-Toluamide', 'UNII-5R219M9TJF', 'CHEBI:16562', 'GNF-PF-1199', '.alpha.-Phenylacetamide', 'Phenyl-.beta.-acetylamine', '5R219M9TJF', 'CHEMBL347645', 'MFCD00059193', 'NSC 1877', 'EINECS 203-147-0', 'phenyl acetamide', 'AI3-19421', 'benzene-acetamide', '2-phenyl acetamide', 'phenylacetimidic acid', 'Acetamide, 2-phenyl', '(+)-benzeneacetamide', '(-)-benzeneacetamide', 'beta-Phenyl-acetylamine', '.alpha.-Toluimidic acid', '(+/-)-benzeneacetamide', '(alpha-)2-Phenylacetamide', '2-Phenylacetamide(alpha-)', 'SCHEMBL25676', 'ACMC-20989e', 'DTXSID1059282', 'NSC1877', 'ZINC394644', 'ACT04844', 'BCP10408', 'NSC-1877', 'BDBM50226209', 's4440', 'AKOS001215073', 'CS-W018983', 'HY-W018197', 'LS11701', 'MCULE-8226590608', 'AC-24581', 'R255', 'SY017094', 'DB-021492', 'FT-0613318', 'P0120', 'C02505', '97240-EP2289892A1', '97240-EP2305688A1', 'Q-200316', 'Q27101974', 'Z33546508', 'F1084-0941', '46AFC744-1FF7-4816-B1C1-7C9995F369E8', 'N-O-NITROPHENYLSULFENYL-L-PROLINEDI(CYCLOHEXYL)AMMONIUMSALT']