Number;IUPAC_name;Charge;Molecular Formula;Molecular Weight [g/mol];Isomeric SMILES;Pubchem CID;GasPhaseAcidity_B2PLYP//DLPNO-CCSD(T) [kcal/mol];GSolv_Ion_Water [kcal/mol];GSolv_Ion_DMSO [kcal/mol];GSolv_Ion_Acetonitrile [kcal/mol];GSolv_Ion_MeOH [kcal/mol];Gsolv_Neutral_Water_exp [kcal/mol];Gsolv_Neutral_DMSO_TZVPD-Fine [kcal/mol];Gsolv_Neutral_Acetonitrile_TZVPD-Fine [kcal/mol];Gsolv_Neutral_MeOH_TZVPD-Fine [kcal/mol];pka_water;pka_DMSO;pka_Acetonitrile;pka_MeOH;Synonyms
158;3-aminobenzoic acid;-1;C7H7NO2;137.14;C1=CC(=CC(=C1)N)C(=O)O;7419;334.8;;-75.9;;;;-17.1;-13.8;-14.3;;11;;;"['3-AMINOBENZOIC ACID', '99-05-8', 'm-Aminobenzoic acid', 'Benzoic acid, 3-amino-', 'm-Carboxyaniline', '3-Carboxyaniline', 'MABA', 'Benzoic acid, m-amino-', 'Aniline-3-carboxylic acid', 'MFCD00007795', 'm-Aminobenzoesaeure', 'UNII-G2X3B3O37U', '3-Aminobenzoesaeure', '3-Amino-Benzoic Acid', 'MLS000069458', 'CHEMBL307782', 'G2X3B3O37U', 'Imidogen,  (3-carboxyphenyl)-', 'CHEBI:42682', 'Benzoic acid, 3-amino-, homopolymer', '143450-90-2', 'SMR000059135', 'meta-aminobenzoic acid', '3-Aminobenzoic acid, 98%', '26373-80-8', 'EINECS 202-724-4', 'NSC 15012', 'BRN 0471603', 'M-Amonibenzoate', 'AI3-04707', '3-Aminobenzoesure', 'm-aninobenzoic acid', 'GBC', 'M-Amonibenzoic acid', 'm-amino benzoic acid', '3-amino benzoic acid', 'Aniline-3-carboxylate', '3-anilinecarboxylic acid', 'Opera_ID_150', 'aminobenzenecarboxylic acid', 'WLN: ZR CVQ', 'Oprea1_172994', 'SCHEMBL27648', '4-14-00-01092 (Beilstein Handbook Reference)', 'MLS001076476', 'DTXSID3059183', 'HMS2236H06', 'HMS3369J18', 'ZINC388179', 'ACMC-209794', 'NSC15012', 'STR00672', 'BBL037339', 'BDBM50226518', 'NSC-15012', 'STK301688', 'AKOS000119015', 'AS00862', 'CS-W019987', 'DB02054', 'MCULE-8263489676', 'NCGC00018151-01', 'NCGC00018151-02', 'NCGC00018151-03', 'SY001800', 'DB-022255', 'A0268', 'AM20050192', 'FT-0615027', 'D70484', '122900-EP2292589A1', '122900-EP2295053A1', '147527-EP2281563A1', '147527-EP2292589A1', 'Q223045', '3-Aminobenzoic acid, Vetec(TM) reagent grade, 98%', 'Q-200359', 'F2191-0235', '3-Aminobenzoic acid, Pharmaceutical Secondary Standard; Certified Reference Material']"
159;pyridin-3-amine;-1;C5H6N2;94.11;C1=CC(=CN=C1)N;10009;356.8;;-68.0;;;;-11.1;-9.8;-10.9;;28.5;;;['3-AMINOPYRIDINE', 'pyridin-3-amine', '462-08-8', '3-Pyridinamine', '3-Pyridylamine', 'm-Aminopyridine', 'pyridin-3-ylamine', '3-amino pyridine', 'Amino-3 pyridine', 'Pyridine, 3-amino-', 'pyridin-3-yl-amine', 'UNII-69JE8P2L84', '.beta.-Aminopyridine', 'MFCD00006400', 'CHEMBL25541', '69JE8P2L84', 'beta-Aminopyridine', 'DSSTox_CID_27461', 'DSSTox_RID_82361', 'DSSTox_GSID_47461', 'CAS-462-08-8', 'EINECS 207-322-2', 'NSC 15040', 'BRN 0105692', '3-aminopryidine', '3-aminopyridin', 'AI3-52546', '3-amino-pyridin', '3-Pyridinylamine', '3-Amino pyridin', '3-pyridine amine', 'pyridine-3-amine', '3- Aminopyridine', '3-Amino-pyridine', 'pyridine-3-ylamine', 'aminopyridine, 3-', 'pyridin-3-yl amine', '5-AMINOPYRIDINE', 'ACMC-1AFEU', '3-Aminopyridine, 99%', '3AP', 'WLN: T6NJ CZ', '5-22-09-00003 (Beilstein Handbook Reference)', 'DTXSID9047461', 'EBD5990', 'ZINC967327', 'ACT09740', 'BCP22961', 'NSC15040', 'Tox21_201650', 'Tox21_303451', 'BBL013174', 'BDBM50122005', 'CX1211', 'NSC-15040', 'STL163954', 'AKOS000119614', 'MCULE-8277888288', 'PS-9358', 'UN 2671', 'm-Aminopyridine [UN2671]  [Poison]', 'NCGC00249092-01', 'NCGC00257364-01', 'NCGC00259199-01', 'BP-12818', 'DB-028364', 'A0413', 'AM20051207', 'FT-0615067', 'FT-0687286', '12861-EP2269986A1', '12861-EP2277848A1', '12861-EP2281563A1', '12861-EP2298731A1', '12861-EP2308812A2', '12861-EP2308868A1', '12861-EP2308874A1', '12861-EP2314590A1', '12861-EP2316831A1', 'A827009', 'AC-907/25014070', 'Q4634118', 'F1995-0204', 'Z1245636362']
160;3-chlorobenzoic acid;-1;C7H5ClO2;156.56;C1=CC(=CC(=C1)Cl)C(=O)O;447;;;;;;;-13.3;-11.1;-11.5;;;;8.7;"['3-chlorobenzoic acid', '535-80-8', 'm-chlorobenzoic acid', 'Benzoic acid, 3-chloro-', 'Benzoic acid, m-chloro-', '3-chloro-benzoic acid', 'Acido m-clorobenzoico', 'meta-chlorobenzoic acid', 'MFCD00002491', 'UNII-02UOJ7064K', 'MCBA', 'CHEMBL20563', 'CHEBI:49410', '02UOJ7064K', 'CCRIS 5992', 'Acido m-clorobenzoico [Italian]', 'HSDB 6018', 'NSC 8443', 'EINECS 208-618-4', 'BRN 0907218', 'AI3-17210', '3-cholro-benzoate', 'm-chloro benzoic acid', '3-chloro benzoic acid', '3-cholro-benzoic acid', 'm-ClC6H4COOH', 'ACMC-1BMXG', 'meta-chloro benzoic acid', 'DSSTox_CID_4770', 'DSSTox_RID_77523', 'DSSTox_GSID_24770', 'SCHEMBL38766', 'AKOS AKM01128', 'RARECHEM AL BO 0039', 'DTXSID9024770', 'TIMTEC-BB SBB040525', 'NSC8443', 'ZINC156863', 'NSC-8443', 'STR04527', 'AKOS BBS-00003733', 'Tox21_200325', 'AC7860', 'BBL025818', 'BDBM50405324', 'LABOTEST-BB LT00774829', 'LABOTEST-BB LT03329591', 'LABOTEST-BB LT03333327', 'LABOTEST-BB LT03379103', 'STK397808', 'AKOS000118819', 'AS00810', 'MCULE-4475337074', 'PS-3374', 'VZ26689', 'm-Chlorobenzoic acid, NIST SRM 2144', 'NCGC00091317-01', 'NCGC00091317-02', 'NCGC00257879-01', 'CAS-535-80-8', 'SY001122', 'DB-015999', 'AM20050162', 'CS-0015123', 'FT-0615465', '3-Chlorobenzoic acid, ReagentPlus(R), >=99%', 'A23170', '31508-EP2298783A1', '31508-EP2308858A1', '31508-EP2311816A1', '31508-EP2311817A1', '31508-EP2311830A1', 'AQ-344/40293172', '6-NITRO-2-OXO-2H-CHROMENE-3-CARBOXYLICACID', 'Q2823210', 'SR-03000001160-1', 'W-105724', '3-Chlorobenzoic acid, Vetec(TM) reagent grade, 98%', 'F3377-0164', 'Z1258992630', '3-Chlorobenzoic acid, United States Pharmacopeia (USP) Reference Standard', '3-Chlorobenzoic acid, Pharmaceutical Secondary Standard; Certified Reference Material']"
161;3-chlorophenol;-1;C6H5ClO;128.55;C1=CC(=CC(=C1)Cl)O;7933;335.2;;;-50.5;-66.9;;-12.4;-10.4;-10.7;;;25;13.1;['3-Chlorophenol', '108-43-0', 'm-Chlorophenol', 'Phenol, 3-chloro-', 'Phenol, m-chloro-', '3-Hydroxychlorobenzene', 'm-Chlorophenic acid', 'meta-Chlorophenol', '3-Chloro-Phenol', 'NSC 59700', 'UNII-Z2Z7M2FTAD', 'Phenol, 3-chloro-, homopolymer', 'Z2Z7M2FTAD', 'CHEMBL41172', 'CHEBI:38855', 'MFCD00002256', '25231-12-3', '3-Chloro-1-hydroxybenzene', '3CH', 'CCRIS 641', 'HSDB 1413', 'EINECS 203-582-6', 'm-chloro-phenol', 'AI3-23961', '3-chloro phenol', 'm-Chlorophenol, solid', 'm-Chlorophenol, liquid', '1li3', '3-Chlorophenol, 98%', 'CHLOROPHENOL(M-)', 'ACMC-1C1IQ', 'DSSTox_CID_4800', 'WLN: QR CG', 'DSSTox_RID_77538', 'DSSTox_GSID_24800', 'SCHEMBL49772', 'UN 2020 (Salt/Mix)', 'UN 2021 (Salt/Mix)', 'DTXSID4024800', 'ZINC404329', 'AMY10409', 'NSC59700', 'Tox21_200833', 'BDBM50167952', 'NSC-59700', 'STL183823', 'AKOS000118748', 'AS02833', 'CS-W020573', 'DB01957', 'MCULE-4606705291', 'PS-6042', 'NCGC00091698-01', 'NCGC00091698-02', 'NCGC00258387-01', 'CAS-108-43-0', '3-Chlorophenol 100 microg/mL in Methanol', 'DB-040829', 'FT-0615504', 'D95297', '3-Chlorophenol, PESTANAL(R), analytical standard', '3-Cyclohexyl-2-thioxotetrahydropyrimidin-4(1H)-one', 'Q3973362', 'W-108718', 'F0001-0169', 'm-Chlorophenol, solid [UN2020]  [Keep away from food]', 'Z1262246121', 'm-Chlorophenol, liquid [UN2021]  [Keep away from food]', 'UNII-AZ1041M258 component HORNXRXVQWOLPJ-UHFFFAOYSA-N', 'UNII-E9JIO40PSX component HORNXRXVQWOLPJ-UHFFFAOYSA-N']
162;3-cyanobenzoic acid;-1;C8H5NO2;147.13;C1=CC(=CC(=C1)C(=O)O)C#N;15875;323.8;;;;-64.9;;-16.0;-13.3;-13.7;;;;8.5;['3-CYANOBENZOIC ACID', '1877-72-1', 'm-Cyanobenzoic acid', 'Benzoic acid, 3-cyano-', '3-Carboxybenzonitrile', '3-Cyano-benzoic acid', 'Benzoic acid, m-cyano-', 'UNII-D2GC692D78', 'MFCD00002486', 'D2GC692D78', '3-cyano-benzoicacid', 'EINECS 217-511-1', 'm-Carboxybenzonitrile', '3-cyano benzoic acid', 'Enamine_005492', 'ACMC-209eq2', '3-Cyanobenzoic acid, 98%', 'SCHEMBL60691', 'CHEMBL66210', 'DTXSID00172074', 'HMS1409J14', 'ZINC388362', 'ACN-S004174', 'ACT00887', 'AMY30318', 'CS-D1397', 'STR03459', 'STL445584', 'AKOS000120507', 'AC-7326', 'CM12613', 'MCULE-9033602936', 'L523', 'TS-01915', 'AB0014752', 'DB-044647', 'FT-0615553', '10749-EP2301536A1', '10749-EP2301538A1', '10749-EP2308858A1', '10749-EP2311455A1', '10749-EP2311816A1', '10749-EP2311817A1', '10749-EP2316452A1', '877C721', 'AE-562/43460675', 'W-107769', 'Q27276020', 'Z56921155', 'F2191-0030', 'tert-butyl?6-fluoro-3-methyl-1H-indazole-1-carboxylate']
163;3-hydroxybenzoic acid;-1;C7H6O3;138.12;C1=CC(=CC(=C1)O)C(=O)O;7420;331.6;;-74.2;;-73.1;;-18.8;-14.6;-15.6;;11.1;;9.6;['3-Hydroxybenzoic acid', '99-06-9', 'M-HYDROXYBENZOIC ACID', 'm-Salicylic acid', '3-Carboxyphenol', 'Benzoic acid, 3-hydroxy-', 'm-Hba', 'Benzoic acid, m-hydroxy-', 'Acido m-idrossibenzoico', '3-Hydroxy benzoic acid', 'meta-Hydroxybenzoic acid', 'Kyselina 3-hydroxybenzoova', '3-hydroxy-benzoic acid', 'UNII-2ZFW40OJ7U', 'NSC 55746', 'MFCD00002506', '2ZFW40OJ7U', 'CHEMBL65369', 'CHEBI:30764', 'Benzoic acid, 3-hydroxy-, homopolymer', 'm-hydroxybenzoate', '25302-76-5', '3HB', 'Acido m-idrossibenzoico [Italian]', 'Kyselina 3-hydroxybenzoova [Czech]', 'EINECS 202-726-5', 'BRN 0508160', 'm-salicylate', 'AI3-03110', '3pcb', '3-hydroxy benzoate', 'meta-hydroxybenzoate', 'meta-salicylic acid', '3-hydroxybenzoic-acid', 'metahydroxybenzoic acid', '3-Hydroxybenzoate, II', 'Enamine_005356', 'DSSTox_CID_1610', 'bmse000324', 'DSSTox_RID_76235', 'DSSTox_GSID_21610', 'SCHEMBL40078', 'DTXSID6021610', 'HMS1409D10', 'ZINC388754', 'ACMC-209795', 'NSC55746', 'Tox21_200527', 'BBL011983', 'BDBM50336491', 'NSC-55746', 's6367', 'STL163473', 'AKOS000118958', 'CS-W004049', 'HY-W004049', 'MCULE-3607182166', 'PS-5406', 'CAS-99-06-9', 'NCGC00248676-01', 'NCGC00258081-01', '3-Hydroxybenzoic acid, analytical standard', 'AB0007855', 'DB-028515', 'FT-0600874', 'H0205', '3-Hydroxybenzoic acid, ReagentPlus(R), 99%', 'C00587', 'A845953', 'AE-562/40227537', 'Q2823216', 'W-100054', '3-Hydroxybenzoic acid, Vetec(TM) reagent grade, 98%', 'F9995-1635', 'UNII-I3P9R8317T component IJFXRHURBJZNAO-UHFFFAOYSA-N', '713EC407-4844-477D-8207-DBD66E398D2C']
164;3-methylbenzoic acid;-1;C8H8O2;136.15;CC1=CC(=CC=C1)C(=O)O;7418;335.7;;-72.0;;-72.8;;-12.3;-10.5;-11.0;;11;;9.4;['3-Methylbenzoic acid', 'M-TOLUIC ACID', '99-04-7', 'm-Toluylic acid', 'Benzoic acid, 3-methyl-', '3-Toluic acid', 'meta-Toluic acid', 'm-Methylbenzoic acid', 'beta-Methylbenzoic acid', '3-Methyl-Benzoic Acid', 'beta-Bethylbenzoic acid', 'UNII-1UA7K8EEXT', '1UA7K8EEXT', 'CHEMBL67450', 'CHEBI:10589', 'beta-bethylbenzoate', 'DSSTox_CID_1617', 'DSSTox_RID_76237', 'DSSTox_GSID_21617', 'CAS-99-04-7', 'NSC 2214', 'EINECS 202-723-9', '3-toluic acid, zinc salt', '3-toluic acid, barium salt', 'BRN 0970526', '3-toluic acid, cadmium salt', 'meta-toluate', 'm-Toluylate', 'AI3-15626', 'b-Bethylbenzoate', 'b-Methylbenzoate', '3-methyl-benzoate', 'beta-Methylbenzoate', '3-methylbenzic acid', 'b-Bethylbenzoic acid', 'b-Methylbenzoic acid', 'm-methyl-benzoic acid', 'M-TOLUICACID', 'meta-methylbenzoic acid', 'META TOLUIC ACID', 'M-ToluicAcidForSynthesis', 'bmse000553', 'NCIOpen2_000993', 'SCHEMBL14406', 'BENZOIC ACID,3-METHYL', 'DTXSID1021617', 'NSC2214', 'ZINC330142', 'ACMC-209793', 'NSC-2214', 'Tox21_201591', 'Tox21_302796', 'BDBM50405326', 'MFCD00002523', 'STK397307', 'AKOS000120442', 'AS00863', 'm-Toluic acid, ReagentPlus(R), 99%', 'MCULE-8632144278', 'NCGC00091271-01', 'NCGC00091271-02', 'NCGC00091271-03', 'NCGC00256583-01', 'NCGC00259140-01', 'AS-10810', 'CS-0008583', 'FT-0629015', 'T0291', 'C07211', 'D70873', 'm-Toluic acid, Vetec(TM) reagent grade, 98%', '31534-EP2308858A1', '31534-EP2311816A1', '31534-EP2311817A1', 'AB-131/40222909', '3-Methylbenzoic acid(Flakes or Chunks or Granular)', 'Q1241221', 'W-100055', 'Z57913535', 'F2191-0114', 'UNII-I889W3548N component GPSDUZXPYCFOSQ-UHFFFAOYSA-N', 'OVV']
165;3-nitrobenzoic acid;-1;C7H5NO4;167.12;C1=CC(=CC(=C1)[N+](=O)[O-])C(=O)O;8497;323.4;;;-49.6;-64.8;;-16.1;-13.5;-13.7;;;19.3;8.3;['3-NITROBENZOIC ACID', '121-92-6', 'm-Nitrobenzoic acid', 'Benzoic acid, 3-nitro-', 'Benzoic acid, m-nitro-', 'meta-Nitrobenzoic acid', 'Metanitrobenzoic acid', '3-Nitro-benzoic acid', 'm-Nitrobenzenecarboxylic acid', 'MFCD00007251', 'UNII-H318ZW7612', 'CHEMBL274839', 'H318ZW7612', 'DSSTox_CID_5737', 'DSSTox_RID_77899', 'DSSTox_GSID_25737', 'CAS-121-92-6', 'CCRIS 2335', 'HSDB 6028', 'NSC 9801', 'EINECS 204-508-5', 'BRN 0908644', 'NITROBENZOIC(3-) ACID', 'AI3-09015', 'RARECHEM AL BO 0229', 'LABOTEST-BB LT00795102', 'm-nitro benzoic acid', '3-nitro benzoic acid', 'Benzoic acid, nitro-', 'Meta Nitro Benzoic Acid', 'WLN: WNR CVQ', 'ACMC-1BP0R', '(alphaS,betaR)-Bedaquiline', 'SCHEMBL132618', 'DTXSID0025737', 'SCHEMBL17347335', 'NSC9801', 'ATTERCOP-CHM AT114441', 'ZINC156875', 'AMY21879', 'BCP08709', 'NSC-9801', 'STR01384', 'Tox21_201238', 'Tox21_303250', 'BDBM50405311', 'LABOTEST-BB LT03331364', 'STK301724', '3-Nitrobenzoic acid, puriss., 99%', 'AKOS000119012', 'AC-2834', 'AS00837', 'CS-W020596', 'MCULE-6150173112', 'PS-5143', 'NCGC00091521-01', 'NCGC00091521-02', 'NCGC00091521-03', 'NCGC00257168-01', 'NCGC00258790-01', '3-Nitrobenzoic acid, ReagentPlus(R), 99%', 'FT-0616240', 'N0154', 'BENZOIC ACID,3-NITRO  MFC7 H5 N1 O4', '3-Nitrobenzoic acid, purum, >=98.0% (HPLC)', '3-Nitrobenzoic acid, Vetec(TM) reagent grade, 98%', 'Q4634183', 'W-108445', 'F2191-0133', '27178-83-2']
166;3-(trifluoromethyl)benzoic acid;-1;C8H5F3O2;190.12;C1=CC(=CC(=C1)C(F)(F)F)C(=O)O;9963;;;;;;;-12.6;-10.6;-11.1;;;;8.7;"['3-(Trifluoromethyl)benzoic acid', '454-92-2', 'm-Trifluoromethylbenzoic acid', '3-TRIFLUOROMETHYLBENZOIC ACID', 'alpha,alpha,alpha-Trifluoro-m-toluic acid', 'Benzoic acid, 3-(trifluoromethyl)-', '3-Carboxybenzotrifluoride', '3-Trifluoromethyl-benzoic acid', 'm-(Trifluoromethyl)benzoic acid', '3-(Trifluoromethyl)benzoicacid', 'a,a,a-trifluoro-m-toluic acid', 'm-CARBOXYBENZOTRIFLUORIDE', 'UNII-930H336M90', '3-TFMBA', 'MFCD00002519', '3-Trifluoromethylbenzoate', 'm-(trifluoroformyl)benzoic acid', 'CHEBI:60695', '3-(trifluoromethyl)-benzoic acid', '930H336M90', '.alpha.,.alpha.,.alpha.-Trifluoro-m-toluic acid', 'MTF-BOA', 'EINECS 207-230-2', 'NSC 43025', 'ACMC-1AL8C', 'm-Trifluorometylbenzoic acid', 'DSSTox_CID_21460', 'DSSTox_RID_79741', 'DSSTox_GSID_41460', 'SCHEMBL40186', 'CHEMBL66551', '3-trifluoromethyl benzoic acid', 'meta-trifluoromethylbenzoic acid', 'RARECHEM AL BO 0047', 'DTXSID2041460', 'meta-trifluoromethyl benzoic acid', 'FQXQBFUUVCDIRK-UHFFFAOYSA-', 'TIMTEC-BB SBB003661', '3-(trifluoromethyl) benzoic acid', 'ACT00892', 'ALBB-022842', 'NSC43025', 'ZINC2504353', 'Tox21_300654', 'BBL027387', 'LABOTEST-BB LT00455008', 'LABOTEST-BB LT03331402', 'NSC-43025', 'STK946189', 'AKOS000118820', '3-(Trifluoromethyl)benzoic acid, 99%', 'AC-2637', 'AS00869', 'CM12892', 'CS-W009200', 'LS11184', 'MCULE-4603187172', 'PS-8388', 'NCGC00248130-01', 'NCGC00254562-01', 'CAS-454-92-2', 'SY002359', 'alpha,alpha,alpha-Tri-fluoro-m-toluic acid', 'm-Toluic acid,.alpha.,.alpha.-trifluoro-', 'AB0011055', 'Benzoic acid, 3-(trifluoromethyl)- (9CI)', 'DB-024071', 'A1711', 'AM20040506', 'FT-0613928', 'T1034', '454T922', 'AO-801/41077429', 'm-Toluic acid, .alpha.,.alpha.,.alpha.-trifluoro-', 'm-Toluic acid, alpha,alpha,alpha-trifluoro- (8CI)', 'W-106134', 'Q27128433', 'F0001-1229', 'Z219997452', '3-(Trifluoromethyl)benzoicacid;3-(Trifluoromethyl)benzoic Acid']"
167;3-(trifluoromethyl)phenol;-1;C7H5F3O;162.11;C1=CC(=CC(=C1)O)C(F)(F)F;7376;333.1;;;-47.8;;;-11.6;-9.7;-10.1;;;24.9;;"['3-(Trifluoromethyl)phenol', '98-17-9', '3-Trifluoromethylphenol', '3-Hydroxybenzotrifluoride', 'm-trifluoromethylphenol', 'm-Hydroxybenzotrifluoride', 'Phenol, 3-(trifluoromethyl)-', 'm-(Trifluoromethyl)phenol', 'alpha,alpha,alpha-Trifluoro-m-cresol', 'a,a,a-trifluoro-m-cresol', 'phenol, 3-(trifluoromethyl)', '5-TRIFLUOROMETHYLPHENOL', '3-trifluoromethyl phenol', '3-Trifluoromethyl-phenol', '3-(trifluoromethyl) phenol', '3-Hydroxy-alpha,alpha,alpha-trifluorotoluene', 'MFCD00002299', 'm-Cresol, .alpha.,.alpha.,.alpha.-trifluoro-', 'NSC 9884', 'EINECS 202-645-5', '3-trifluoromethylplienol', 'm-trifluoromethyl-phenol', 'm-CRESOL, alpha,alpha,alpha-TRIFLUORO-', 'meta-trifluoromethylphenol', '3-hydroxy benzotrifluoride', '3-hydroxy-benzotrifluoride', 'm-CF3C6H4OH', 'meta-trifluoromethyl phenol', 'ACMC-209s9s', 'EC 202-645-5', 'SCHEMBL40389', 'CHEMBL57877', 'ALPHA,A,A-Trifluoro-m-cresol', 'DTXSID7052658', 'TIMTEC-BB SBB008329', 'NSC9884', '3-(Trifluoromethyl)phenol, 99%', 'BDBM108237', 'ZINC164582', '3-(1,1,1-trifluoromethyl)phenol', 'NSC-9884', '.alpha.,.alpha.-Trifluoro-m-cresol', 'BBL009723', 'STL141088', 'alpha,alpha,alpha,-trifluoro-m-cresol', 'AKOS000119745', 'alpha, alpha, alpha-trifluoro-m-cresol', 'AS00196', 'CM11809', 'CS-W010869', 'MCULE-4960314711', 'PS-8757', 'AC-10892', 'M&#8208;trifluoromethylphenol (Hit 5)', 'DB-028582', '.alpha.,.alpha.,.alpha.-Trifluoro-m-cresol', 'AM20050022', 'FT-0628939', 'T0436', 'D70669', '47726-EP2298750A1', '47726-EP2311811A1', '182297-EP2269977A2', '182297-EP2274983A1', 'W-100090', 'F0001-2315', 'Z1262253018', '1-TRIFLUOROMETHYL,3-HYDROXY-BENZENE  (3-HYDROXI-TOLUENE,ALPHA,ALPHA,ALPHA-TRIFLUORO)', 'm-Hydroxybenzotrifluoride ;  3-Hydroxybenzotrifluoride ;  3-(Trifluoromethyl)phenol ;  alpha,alpha,alpha-Trifluoro-m-cresol']"