Number;IUPAC_name;Charge;Molecular Formula;Molecular Weight [g/mol];Isomeric SMILES;Pubchem CID;GasPhaseAcidity_B2PLYP//DLPNO-CCSD(T) [kcal/mol];GSolv_Ion_Water [kcal/mol];GSolv_Ion_DMSO [kcal/mol];GSolv_Ion_Acetonitrile [kcal/mol];GSolv_Ion_MeOH [kcal/mol];Gsolv_Neutral_Water_exp [kcal/mol];Gsolv_Neutral_DMSO_TZVPD-Fine [kcal/mol];Gsolv_Neutral_Acetonitrile_TZVPD-Fine [kcal/mol];Gsolv_Neutral_MeOH_TZVPD-Fine [kcal/mol];pka_water;pka_DMSO;pka_Acetonitrile;pka_MeOH;Synonyms
137;phenol;1;C6H6O;94.11;C1=CC=C(C=C1)O;996;171.5;;;-99.3;;;-11.0;-9.2;-9.4;;;0.4;;"['phenol', 'carbolic acid', '108-95-2', 'Hydroxybenzene', 'Phenic acid', 'Oxybenzene', 'Phenylic acid', 'Benzenol', 'Monophenol', 'Phenyl hydrate', 'Phenylic alcohol', 'Phenyl hydroxide', 'PhOH', 'Monohydroxybenzene', 'Paoscle', 'Phenole', 'Izal', 'Phenol alcohol', 'Phenyl alcohol', 'Phenol, liquefied', 'Acide carbolique', 'Fenolo', 'Carbolsaure', 'Fenosmolin', 'Fenosmoline', 'Phenosmolin', 'Fenol', 'Liquid phenol', 'Carbolic oil', 'Phenol, pure', 'Phenol homopolymer', 'Fenolo [Italian]', 'Phenole [German]', 'Benzene, hydroxy-', 'Rcra waste number U188', 'Campho-Phenique Gel', 'Phenic', 'Carbolsaure [German]', 'Campho-Phenique Liquid', 'NCI-C50124', 'Phenol, molten', ""Baker's P & S liquid & Ointment"", 'Fenol [Dutch, Polish]', ""Baker's P and S Liquid and Ointment"", 'Monohydroxy benzene', 'Un 2812 (solution)', 'UN 2312 (molten)', 'Acide carbolique [French]', 'UN 1671 (solid)', 'NSC 36808', 'Campho-Phenique Cold Sore Gel', 'Anbesol', 'Phenic alcohol', 'Liquefied phenol', 'Synthetic phenol', 'Phenol, dimer', 'RCRA waste no. U188', 'UNII-339NCG44TV', 'MFCD00002143', 'UN1671', 'UN2312', 'UN2821', 'AI3-01814', 'CHEMBL14060', '339NCG44TV', 'DTXSID5021124', 'CHEBI:15882', 'Phenol (or solutions with 5% or more phenol)', 'NSC-36808', 'Hydroxybenzene solution', 'Phenol, solid [UN1671]  [Poison]', 'Phenol, molten [UN2312]  [Poison]', 'NCGC00091454-04', 'Phenol solutions [UN2821]  [Poison]', 'DSSTox_CID_1124', 'Phenol, >=99.0%', 'DSSTox_RID_75955', 'Phenol, sulfurated', 'DSSTox_GSID_21124', '27073-41-2', 'Phenol [JAN]', 'Caswell No. 649', 'phenylalcohol', 'hydroxy benzene', 'Phenol 100 microg/mL in Methanol', 'Phenol, liquid', 'Phenol, solid', ""Baker's p and s"", '17442-59-0', 'CAS-108-95-2', 'CCRIS 504', 'FEMA No. 3223', 'HSDB 113', '(14C)Phenol', 'Phenol [USP:JAN]', 'PHENOL (2,3,4,5,6-D5)', 'EINECS 203-632-7', 'EPA Pesticide Chemical Code 064001', 'Benzophenol', 'Carbolsaeure', 'Karbolsaeure', 'acide phenique', 'Hydroxy-benzene', 'Phenol solution', 'Phenol liquid', 'Phenol molten', 'Phenol solutions', 'Phenol synthetic', 'Phenolated water', ""Pandy's reagent"", 'Liquified Phenol', 'Carbolicum acidum', 'Cepastat lozenges', 'Phenol, labeled with carbon-14', 'Phenol (liquid)', '2-phenyl alcohol', 'Phenol, synthetic', 'Phenol, ultrapure', 'Phenol ACS grade', 'EINECS 262-972-4', 'Liquefied phenol BP', 'Paoscle (TN)', 'Carbolic acid liquid', 'Phenol polymer-bound', 'Phenol (TN)', 'Phenol,(S)', 'Phenol, ACS reagent', 'Carbolic acid, liquid', '1ai7', '1li2', '4i7l', 'Liquefied phenol (TN)', 'Phenol (JP17/USP)', 'Phenol, detached crystals', 'Phenol, >=99%', 'WLN: QR', 'ACMC-1CE2K', 'Liquefied phenol (JP17)', 'bmse000290', 'bmse010026', 'C6H5OH', 'Fenol(DUTCH, POLISH)', 'EC 203-632-7', 'PHENOL, 80% in ethanol', 'Phenol, LR, >=99%', '61788-41-8', 'MLS001065591', 'Phenol, for molecular biology', 'BIDD:ER0293', 'Phenol for disinfection (TN)', 'Phenol, natural, 97%, FG', 'Phenol, 90% aqueous solution', 'Cuticura pain relieving ointment', 'Phenol, AR, >=99.5%', 'BDBM26187', 'Phenol for disinfection (JP17)', 'Phenolated water for disinfection', 'Salicylic acid related compound c', '3f39', 'Phenol 10 microg/mL in Methanol', 'Phenol solution, 1.0 M in THF', 'ENT-1814', 'NSC36808', 'ZINC5133329', 'Tox21_113463', 'Tox21_201639', 'Tox21_300042', 'BBL019774', 'Phenol 5000 microg/mL in Methanol', 'phenol;phenol [jan];phenol, pure;phenol phenol [jan] phenol, pure', 'STL194294', 'AKOS000119025', 'Tox21_113463_1', 'DB03255', 'MCULE-9943948107', 'NA 2821', 'Phenol, BioXtra, >=99.5% (GC)', 'Phenol, SAJ first grade, >=98.0%', 'UN 1671', 'UN 2312', 'UN 2821', 'Phenol, BP grade 80% aqueous solution', 'NCGC00091454-01', 'NCGC00091454-02', 'NCGC00091454-03', 'NCGC00091454-05', 'NCGC00091454-06', 'NCGC00091454-07', 'NCGC00254019-01', 'NCGC00259188-01', 'Phenol solution, 1 M in dichloromethane', 'Phenol, JIS special grade, >=99.0%', '63496-48-0', '73607-76-8', 'AM802906', 'BP-30160', 'SMR000568492', 'Phenol, PESTANAL(R), analytical standard', 'Liquified Phenol (contains 7-10 % water)', '582-EP2269975A2', '582-EP2269977A2', '582-EP2269997A2', '582-EP2270003A1', '582-EP2270101A1', '582-EP2270113A1', '582-EP2272813A2', '582-EP2272817A1', '582-EP2272822A1', '582-EP2272849A1', '582-EP2272935A1', '582-EP2272972A1', '582-EP2272973A1', '582-EP2274983A1', '582-EP2275105A1', '582-EP2275395A2', '582-EP2275403A1', '582-EP2275404A1', '582-EP2275411A2', '582-EP2275415A2', '582-EP2275420A1', '582-EP2277565A2', '582-EP2277566A2', '582-EP2277567A1', '582-EP2277568A2', '582-EP2277569A2', '582-EP2277570A2', '582-EP2277867A2', '582-EP2277872A1', '582-EP2277879A1', '582-EP2277881A1', '582-EP2279750A1', '582-EP2280001A1', '582-EP2280003A2', '582-EP2280004A1', '582-EP2280006A1', '582-EP2280010A2', '582-EP2280012A2', '582-EP2280020A1', '582-EP2280021A1', '582-EP2281817A1', '582-EP2281819A1', '582-EP2284146A2', '582-EP2284147A2', '582-EP2284148A1', '582-EP2284157A1', '582-EP2284160A1', '582-EP2284165A1', '582-EP2284169A1', '582-EP2284178A2', '582-EP2286811A1', '582-EP2286812A1', '582-EP2287158A1', '582-EP2287161A1', '582-EP2287162A1', '582-EP2287165A2', '582-EP2287166A2', '582-EP2287167A1', '582-EP2289509A2', '582-EP2289868A1', '582-EP2289879A1', '582-EP2289883A1', '582-EP2289891A2', '582-EP2289892A1', '582-EP2289896A1', '582-EP2289965A1', '582-EP2292280A1', '582-EP2292597A1', '582-EP2292608A1', '582-EP2292620A2', '582-EP2295399A2', '582-EP2295411A1', '582-EP2295424A1', '582-EP2295426A1', '582-EP2295427A1', '582-EP2295428A2', '582-EP2295429A1', '582-EP2295434A2', '582-EP2295437A1', '582-EP2295438A1', '582-EP2298734A2', '582-EP2298742A1', '582-EP2298744A2', '582-EP2298750A1', '582-EP2298753A1', '582-EP2298758A1', '582-EP2298759A1', '582-EP2298775A1', '582-EP2298776A1', '582-EP2298778A1', '582-EP2301536A1', '582-EP2301538A1', '582-EP2301919A1', '582-EP2301924A1', '582-EP2301926A1', '582-EP2301929A1', '582-EP2301935A1', '582-EP2301937A1', '582-EP2301983A1', '582-EP2302015A1', '582-EP2305033A1', '582-EP2305243A1', '582-EP2305625A1', '582-EP2305627A1', '582-EP2305633A1', '582-EP2305640A2', '582-EP2305648A1', '582-EP2305649A1', '582-EP2305662A1', '582-EP2305664A1', '582-EP2305668A1', '582-EP2305673A1', '582-EP2305674A1', '582-EP2305679A1', '582-EP2305684A1', '582-EP2305685A1', '582-EP2305687A1', '582-EP2305689A1', '582-EP2305695A2', '582-EP2305696A2', '582-EP2305697A2', '582-EP2305698A2', '582-EP2305808A1', '582-EP2308471A1', '582-EP2308510A1', '582-EP2308838A1', '582-EP2308840A1', '582-EP2308848A1', '582-EP2308861A1', '582-EP2308865A1', '582-EP2308872A1', '582-EP2308873A1', '582-EP2308875A1', '582-EP2308877A1', '582-EP2308878A2', '582-EP2308880A1', '582-EP2311455A1', '582-EP2311464A1', '582-EP2311494A1', '582-EP2311808A1', '582-EP2311811A1', '582-EP2311814A1', '582-EP2311822A1', '582-EP2311824A1', '582-EP2311829A1', '582-EP2311831A1', '582-EP2311834A1', '582-EP2314295A1', '582-EP2314571A2', '582-EP2314576A1', '582-EP2314579A1', '582-EP2314588A1', '582-EP2315502A1', '582-EP2316452A1', '582-EP2316470A2', '582-EP2316824A1', '582-EP2316829A1', '582-EP2316831A1', '582-EP2316832A1', '582-EP2316833A1', '582-EP2316836A1', '582-EP2316937A1', '582-EP2316974A1', '582-EP2371806A1', '582-EP2371807A1', '582-EP2371811A2', '582-EP2372017A1', '582-EP2374784A1', '582-EP2374785A1', '582-EP2377842A1', '582-EP2380872A1', 'FT-0645154', 'FT-0673707', 'FT-0693833', 'P1610', 'Phenol stock solution, 100 mg/dL, standard', 'C00146', 'D00033', 'Phenol, unstabilized, ReagentPlus(R), >=99%', '78049-EP2272846A1', '78049-EP2277868A1', '78049-EP2277869A1', '78049-EP2277870A1', '78049-EP2287158A1', '78049-EP2292608A1', '78049-EP2308866A1', '78049-EP2371806A1', '78049-EP2371807A1', '97694-EP2305662A1', 'Phenol, p.a., ACS reagent, 99.5-100.5%', 'Phenol, >=96.0% (calc. on dry substance, T)', 'Q130336', 'J-610001', 'Phenol, for molecular biology, ~90% (T), liquid', 'F1908-0106', 'Phenol, unstabilized, purified by redistillation, >=99%', 'Phenol, BioUltra, for molecular biology, >=99.5% (GC)', 'Phenol, United States Pharmacopeia (USP) Reference Standard', 'UNII-3JYG22FD73 component ISWSIDIOOBJBQZ-UHFFFAOYSA-N', 'Liquified Phenol, meets USP testing specifications, >=89.0%', 'Phenol, BioUltra, for molecular biology, TE-saturated, ~73% (T)', 'Phenol solution, 5000 mug/mL in methanol, certified reference material', 'Phenol solution, certified reference material, 500 mug/mL in methanol', 'Phenol, puriss. p.a., ACS reagent, reag. Ph. Eur., 99.0-100.5%', 'p-Hydroxy polystyrene (100-200 mesh, 0.5-1.5 mmol/g)@CRLFMFCD03703209', 'Phenol solution, 100 mug/mL in acetonitrile, PESTANAL(R), analytical standard', 'Phenol, contains hypophosphorous as stabilizer, loose crystals, ACS reagent, >=99.0%', 'Phenol, puriss., meets analytical specification of Ph. Eur., BP, USP, 99.5-100.5% (GC)', 'Phenol solution, BioReagent, Equilibrated with 10??mM Tris HCl, pH??8.0, 1??mM EDTA, for molecular biology', 'Phenol solution, BioReagent, Saturated with 0.1 M citrate buffer, pH??4.3 +/- 0.2, for molecular biology', 'Phenol, polymer-bound, 100-200 mesh, extent of labeling: 0.5-1.5 mmol/g loading, 1 % cross-linked with divinylbenzene', 'Phenol, puriss., meets analytical specification of Ph. Eur., BP, USP, >=99.5% (GC), crystalline (detached)']"
138;2-methylpropan-2-ol;1;C4H10O;74.12;CC(C)(C)O;6386;187.2;;;-83.7;;;-5.8;-5.3;-6.4;;;3.4;;['tert-Butanol', 'tert-Butyl alcohol', '2-Methylpropan-2-ol', '2-Methyl-2-propanol', '75-65-0', 't-Butanol', '1,1-Dimethylethanol', 'Trimethylcarbinol', 'T-BUTYL ALCOHOL', 't-Butyl hydroxide', 'Trimethyl methanol', '2-Propanol, 2-methyl-', 'Tertiary-Butyl Alcohol', 'Trimethylmethanol', 'tert-butylalcohol', 'Butanol tertiaire', 'Trimethyl carbinol', 'Dimethylethanol', 'tertiary-Butanol', 'Alcool butylique tertiaire', 'tert- butyl alcohol', 'Methanol, trimethyl-', 'tertiary Butyl Alcohol', 'tert.-butanol', 't-BuOH', 't-butylalcohol', 'tertiary butanol', 'NCI-C55367', 't-Butyl alchohol', 'tBuOH', 'tert-BuOH', 'UNII-MD83SFE959', 'tert-Butyl hydroxide', '2-Methyl n-propan-2-ol', 'MD83SFE959', 'CHEBI:45895', 'MFCD00004464', 'Arconol', 'tert-Butyl alcohol, anhydrous', 'Caswell No. 124A', 'tert Butanol', 'Butanol tertiaire [French]', 'tert Butyl Alcohol', 'HSDB 50', 'TBU', '2-Methylpropanol-2', 'Alcohol, tert-Butyl', 'CCRIS 4755', 'Alcool butylique tertiaire [French]', 'EINECS 200-889-7', 'BRN 0906698', 'terbutanol', 'tertbutanol', 'tertiarybutanol', 'ter-butanol', 'tert.butanol', 't-Butylalkohol', 't-butyl-alcohol', 'terbutyl alcohol', 'AI3-01288', 'tert -butanol', 'tertbutyl alcohol', 'tert. Butanol', 't- butanol', 'HOtBu', 'ter-butyl alcohol', 'tert-buyl alcohol', 'tert-butyl-alcohol', 'tert.-butylalcohol', 'tert.butyl alcohol', 'Trimethyl-Methanol', 'tert-Butanol, AR', '2methyl-2-propanol', 'tert. butyl alcohol', 'HOt-Bu', 'Tert.-butyl alcohol', 'tert-C4H9OH', '2-methyl,2-propanol', 'Methyl-2 propanol-2', 't-Bu-OH', '1,1-dimethyl ethanol', '2-methyl propan-2-ol', '2-methyl-propan-2-ol', 'ACMC-209ozd', 'tert-Butanol HPLC grade', 'tert-Butanol ACS reagent', 'Ethanol, 1,1-Dimethyl-', '2-methyl-2-propyl alcohol', 'EC 200-889-7', '(CH3)3COH', '4-01-00-01609 (Beilstein Handbook Reference)', 'HOC(CH3)3', 'CHEMBL16502', 'Tertiary butyl alcohol reagent', 'DTXSID8020204', 'tert-Butanol, >=99% (GC)', 'tert-Butanol, analytical standard', 'tert-Butanol, p.a., 99.0%', 'AMY11058', 'ZINC1680021', 'STL282741', 'tert-Butanol, anhydrous, >=99.5%', 'AKOS009029221', 'DB03900', 'MCULE-2451492095', 'tert-Butanol, for HPLC, >=99.5%', 'tert-Butanol, technical grade, 95.0%', 'tert-Butanol, ACS reagent, >=99.0%', '25-65-0', 'BP-20656', 'Butyl Alcohol (tert)- Reagent Grade ACS', 'tert-Butanol 100 microg/mL in Acetonitrile', 'tert-Butanol, SAJ first grade, >=98.0%', 'B0706', 'FT-0688093', 'tert-Butanol, TEBOL(R) 99, >=99.3%', 'tert-Butanol, SAJ special grade, >=99.0%', '6136-EP0930075A1', '6136-EP2270014A1', '6136-EP2274983A1', '6136-EP2286811A1', '6136-EP2287152A2', '6136-EP2289868A1', '6136-EP2292606A1', '6136-EP2295414A1', '6136-EP2295415A1', '6136-EP2298772A1', '6136-EP2305642A2', '6136-EP2305673A1', '6136-EP2308839A1', '6136-EP2311834A1', '6136-EP2374780A1', '6136-EP2374783A1', '6136-EP2377841A1', '6136-EP2380568A1', 'C21389', '10394-EP2269989A1', '10394-EP2269993A1', '10394-EP2270001A1', '10394-EP2270008A1', '10394-EP2270009A1', '10394-EP2270012A1', '10394-EP2270013A1', '10394-EP2272817A1', '10394-EP2272826A1', '10394-EP2275401A1', '10394-EP2275404A1', '10394-EP2277507A1', '10394-EP2277865A1', '10394-EP2284159A1', '10394-EP2284165A1', '10394-EP2286795A1', '10394-EP2287153A1', '10394-EP2287154A1', '10394-EP2287155A1', '10394-EP2287165A2', '10394-EP2287166A2', '10394-EP2289509A2', '10394-EP2289868A1', '10394-EP2289892A1', '10394-EP2292608A1', '10394-EP2292612A2', '10394-EP2292617A1', '10394-EP2292620A2', '10394-EP2295406A1', '10394-EP2295412A1', '10394-EP2295413A1', '10394-EP2295414A1', '10394-EP2295432A1', '10394-EP2298313A1', '10394-EP2298753A1', '10394-EP2298768A1', '10394-EP2301536A1', '10394-EP2301538A1', '10394-EP2301933A1', '10394-EP2305625A1', '10394-EP2305651A1', '10394-EP2305659A1', '10394-EP2305660A1', '10394-EP2305666A1', '10394-EP2305676A1', '10394-EP2305681A1', '10394-EP2308812A2', '10394-EP2308828A2', '10394-EP2308839A1', '10394-EP2308840A1', '10394-EP2308848A1', '10394-EP2308849A1', '10394-EP2308850A1', '10394-EP2308854A1', '10394-EP2308866A1', '10394-EP2308867A2', '10394-EP2308869A1', '10394-EP2308870A2', '10394-EP2308877A1', '10394-EP2311455A1', '10394-EP2311808A1', '10394-EP2311827A1', '10394-EP2311829A1', '10394-EP2311830A1', '10394-EP2311838A1', '10394-EP2314577A1', '10394-EP2314590A1', '10394-EP2315303A1', '10394-EP2316452A1', '10394-EP2377841A1', '10394-EP2380873A1', '15232-EP2272849A1', '15232-EP2275411A2', '15232-EP2275414A1', '15232-EP2277876A1', '15232-EP2280005A1', '15232-EP2281899A2', '15232-EP2284158A1', '15232-EP2284174A1', '15232-EP2286811A1', '15232-EP2289868A1', '15232-EP2289884A1', '15232-EP2292589A1', '15232-EP2292607A2', '15232-EP2292613A1', '15232-EP2292614A1', '15232-EP2292619A1', '15232-EP2292622A1', '15232-EP2295415A1', '15232-EP2295422A2', '15232-EP2298729A1', '15232-EP2298742A1', '15232-EP2298747A1', '15232-EP2298768A1', '15232-EP2298776A1', '15232-EP2301536A1', '15232-EP2301538A1', '15232-EP2301911A1', '15232-EP2301923A1', '15232-EP2305651A1', '15232-EP2305652A2', '15232-EP2305695A2', '15232-EP2305696A2', '15232-EP2305697A2', '15232-EP2305698A2', '15232-EP2308848A1', '15232-EP2308854A1', '15232-EP2311455A1', '15232-EP2311796A1', '15232-EP2311797A1', '15232-EP2311798A1', '15232-EP2311799A1', '15232-EP2311830A1', '15232-EP2314295A1', '15232-EP2314577A1', '15232-EP2315303A1', '15232-EP2316832A1', '15232-EP2316833A1', '15232-EP2374780A1', '15232-EP2374781A1', '15232-EP2374790A1', '15245-EP2272825A2', '15245-EP2272839A1', '15245-EP2272840A1', '15245-EP2275102A1', '15245-EP2277848A1', '15245-EP2286811A1', '15245-EP2289894A2', '15245-EP2292612A2', '15245-EP2301536A1', '15245-EP2301538A1', '15245-EP2301923A1', '15245-EP2305652A2', '15245-EP2305684A1', '15245-EP2308861A1', '15245-EP2308867A2', '15245-EP2308870A2', '15245-EP2311455A1', '15245-EP2311808A1', '15245-EP2316832A1', '15245-EP2316833A1', '18809-EP2269986A1', '18809-EP2275414A1', '18809-EP2298763A1', '18809-EP2298767A1', '18809-EP2301933A1', '18809-EP2305625A1', '18809-EP2308838A1', '18809-EP2311827A1', '18809-EP2314576A1', '18809-EP2314587A1', '19238-EP2277507A1', '19238-EP2286795A1', '19238-EP2295418A1', '19238-EP2298773A1', '19238-EP2305033A1', '19238-EP2308866A1', '19238-EP2311801A1', '19238-EP2311802A1', '19238-EP2311803A1', '19238-EP2314576A1', '19238-EP2371814A1', '91826-EP2269986A1', '91826-EP2289965A1', '91826-EP2292630A1', '91826-EP2295415A1', '91826-EP2298828A1', '91826-EP2305649A1', '91826-EP2305668A1', '91826-EP2305672A1', '91826-EP2371803A1', '91826-EP2377843A1', '100040-EP2272839A1', '100040-EP2272840A1', '100040-EP2301923A1', '102188-EP2292621A1', '102188-EP2301922A1', '157895-EP2374780A1', '157895-EP2374781A1', 'A838477', 'Q285790', 'J-510082', '2-Methyl-2-propanol, Trimethylcarbinol, tert-Butanol', 'F0001-1901', 'tert-Butanol, puriss. p.a., ACS reagent, >=99.7% (GC)', 'UNII-WB09NY83YA component DKGAVHZHDRPRBM-UHFFFAOYSA-N', '2-Methyl-2-propanol, tert-Butyl alcohol, Trimethyl carbinol', 'tert-Butanol, certified reference material, 5000 mug/mL in methanol']