Number;IUPAC_name;Charge;Molecular Formula;Molecular Weight [g/mol];Isomeric SMILES;Pubchem CID;GasPhaseAcidity_B2PLYP//DLPNO-CCSD(T) [kcal/mol];GSolv_Ion_Water [kcal/mol];GSolv_Ion_DMSO [kcal/mol];GSolv_Ion_Acetonitrile [kcal/mol];GSolv_Ion_MeOH [kcal/mol];Gsolv_Neutral_Water_exp [kcal/mol];Gsolv_Neutral_DMSO_TZVPD-Fine [kcal/mol];Gsolv_Neutral_Acetonitrile_TZVPD-Fine [kcal/mol];Gsolv_Neutral_MeOH_TZVPD-Fine [kcal/mol];pka_water;pka_DMSO;pka_Acetonitrile;pka_MeOH;Synonyms
106;2-chloroacetic acid;-1;C2H3ClO2;94.5;C(C(=O)O)Cl;300;328.6;-72.3;;-53.4;-66.6;-8.7;-12.0;-9.9;-9.9;2.9;;17.6;7.9;['chloroacetic acid', 'Monochloroacetic acid', '79-11-8', '2-chloroacetic acid', 'Chloracetic acid', 'Chloroethanoic acid', 'Acetic acid, chloro-', 'Acide chloracetique', 'Monochloroethanoic acid', 'Monochloracetic acid', 'Monochloorazijnzuur', 'Monochloressigsaeure', 'Acidomonocloroacetico', 'Chloroacetic acid, solid', 'Acetic acid, 2-chloro-', 'Chloroacetic', '2-chloro-acetic acid', 'Acide monochloracetique', 'Chloroacetic acid [BSI:ISO]', '.alpha.-Chloroacetic acid', 'Acide chloroacetique', 'Kyselina chloroctova', 'Monochloorazijnzuur [Dutch]', 'Acide chloracetique [French]', 'Kyselina chloroctova [Czech]', 'Monochloressigsaeure [German]', 'Acide chloroacetique [French]', 'alpha-Chloroacetic acid', '2-chloro-ethanoic acid', 'Acidomonocloroacetico [Italian]', 'Acide monochloracetique [French]', 'Chloroacetic acid, molten', 'Monochloroacetic acid [BSI:ISO]', 'NSC 142', 'Acide chloracetique [ISO-French]', 'Chloroacetic acid solution', 'Chloroacetic acid (80% or less)', 'NCI-C60231', 'chloro-acetic acid', 'Acetocaustin (TN)', 'UNII-5GD84Y125G', 'CH2ClCOOH', 'monochloro acetic acid', 'CHLOROACETIC-ACID', 'Monochloracetic acidacide monochloracetique', 'Monochloroacetic acid, solution', 'Chloroacetic acid, liquid', 'CHEBI:27869', '5GD84Y125G', 'MFCD00002683', 'CHLOROACETIC ACID CRYSTALLINE', 'Chloroacetic acid, molten [UN3250]  [Poison]', 'Chloroacetic acid, solid [UN1751]  [Poison]', 'Chloroacetic acid, solution [UN1750]  [Poison]', 'Acetocaustin', 'Caswell No. 179B', 'sJPhLQDIKTp@', 'CCRIS 2117', 'HSDB 939', 'EINECS 201-178-4', 'UN1750', 'UN1751', 'UN3250', 'EPA Pesticide Chemical Code 279400', 'BRN 0605438', 'CHLOROACETIC ACID, ACS', 'cloroacetic acid', 'AI3-25035', 'chloro acetic acid', 'a-chloroacetic acid', 'R3W', 'ClCH2COOH', 'monochloro-acetic acid', 'iso-AlkanesC13-C16', 'alpha-chloro-acetic acid', 'Chloroacetic acid, 99%', 'DSSTox_CID_901', 'Chloroacetic acid, solid [UN1751] [Poison]', 'bmse000367', 'WLN: QV1G', 'Chloroacetic acid, molten [UN3250] [Poison]', 'Chloroacetic acid, solution', 'EC 201-178-4', 'Chloroacetic acid, >=99%', 'DSSTox_RID_75855', 'NCIOpen2_002217', 'DSSTox_GSID_20901', '4-02-00-00474 (Beilstein Handbook Reference)', 'MLS001065621', 'BIDD:ER0630', 'CHEMBL14090', 'NSC142', 'Chloroacetic acid, solid (dot)', 'DTXSID4020901', 'FOCAUTSVDIKZOP-UHFFFAOYSA-', 'NSC-142', 'BCP20585', 'NSC42970', 'STR00326', 'ZINC3860254', 'Tox21_201114', 'BBL037260', 'LMFA01090068', 'NSC-42970', 'STL197882', 'Chloroacetic acid, analytical standard', 'AKOS000118920', 'MCULE-9228754880', 'UN 1751', 'CAS-79-11-8', 'NCGC00091473-01', 'NCGC00091473-02', 'NCGC00091473-03', 'NCGC00258666-01', 'SMR000568484', 'Chloroacetic acid, for synthesis, 99.0%', 'Chloroacetic acid, ACS reagent, >=99.0%', 'Chloroacetic acid, purum, >=97.0% (T)', 'Chloroacetic acid, puriss., >=99.0% (T)', 'C06755', 'D07677', '33169-EP2292597A1', '33169-EP2301918A1', '33169-EP2305649A1', '33169-EP2311815A1', '33169-EP2374786A1', '44264-EP2289882A1', '44264-EP2289890A1', '44264-EP2292597A1', '44264-EP2298776A1', '44264-EP2301911A1', '44264-EP2308833A2', '44264-EP2311814A1', '44264-EP2374786A1', 'Chloroacetic acid, JIS special grade, >=99.0%', 'Q409013', 'J-520023', 'Chloroacetic acid, PESTANAL(R), analytical standard', 'F2190-0289', 'Chloroacetic acid 1000 microg/mL in Methyl-tert-butyl ether']
107;2,2-dichloroacetic acid;-1;C2H2Cl2O2;128.94;C(C(=O)O)(Cl)Cl;6597;320.6;-64.3;-64.0;-50.4;-61.7;-6.6;-13.1;-10.6;-10.7;1.4;6.4;14.5;6.3;"['DICHLOROACETIC ACID', '79-43-6', '2,2-Dichloroacetic acid', 'Dichloracetic acid', 'Acetic acid, dichloro-', 'Dichloroethanoic acid', ""Urner's liquid"", 'Dichlorethanoic acid', 'Bichloracetic acid', 'Acetic acid, 2,2-dichloro-', 'DCA (acid)', 'DICHLORO-ACETIC ACID', 'Kyselina dichloroctova', 'UNII-9LSH52S3LQ', 'NSC 2654', 'DCA', '9LSH52S3LQ', 'CHEBI:36386', 'NSC-2654', 'MFCD00004223', 'NCGC00091444-02', 'DSSTox_CID_428', 'DSSTox_RID_75580', 'DSSTox_GSID_20428', 'C2H2Cl2O2', 'CAS-79-43-6', 'Dichloroacetic acid (IUPAC)', 'SMR000059158', 'TF4', 'Kyselina dichloroctova [Czech]', 'CCRIS 4016', 'HSDB 6894', 'EINECS 201-207-0', 'UN1764', 'BRN 1098596', 'AI3-18370', 'Dichloressigsaeure', 'DKhUK', 'dichloro acetic acid', 'WLN: QVYGG', 'ACMC-1BLM2', '2,2-dichloro-acetic acid', 'SCHEMBL7777', 'Dichloroacetic acid-[13C]', '4-02-00-00498 (Beilstein Handbook Reference)', 'MLS000028893', 'MLS001074861', 'MLS001424165', 'CHEMBL13960', 'DTXSID2020428', 'NSC2654', 'BDBM227588', 'HMS2051P22', 'HMS2232H11', 'HMS3370D12', 'HMS3393P22', 'ZINC3830689', 'Dichloroacetic acid, puriss., 99%', 'Tox21_111133', 'Tox21_202363', 'Tox21_300419', 'Acetic acid, dichloro- (8CI,9CI)', 'BBL011449', 'LMFA01090070', 'STL146561', 'AKOS005720869', 'Tox21_111133_1', 'CCG-101070', 'DB08809', 'MCULE-1246638159', 'NC00320', 'UN 1764', 'Dichloroacetic acid, analytical standard', 'NCGC00091444-01', 'NCGC00091444-03', 'NCGC00091444-04', 'NCGC00167845-02', 'NCGC00254261-01', 'NCGC00259912-01', 'AS-14228', 'K407', 'DB-056364', 'D0308', 'Dichloroacetic acid [UN1764]  [Corrosive]', 'Dichloroacetic acid, biotech. grade, >=98%', 'FT-0624700', 'Dichloroacetic acid, ReagentPlus(R), >=99%', 'EN300-20014', '11029-EP2269610A2', '11029-EP2289510A1', '11029-EP2316457A1', '11029-EP2316458A1', '11029-EP2316825A1', '11029-EP2316826A1', '11029-EP2316827A1', '11029-EP2316828A1', '12408-EP2277848A1', '12408-EP2277878A1', '12408-EP2295503A1', '12408-EP2298772A1', '12408-EP2301918A1', '12408-EP2305649A1', '12408-EP2316974A1', 'Q412845', 'DCA Deblock (0.36M dichloroacetic acid in toluene)', 'Dichloroacetic acid, PESTANAL(R), analytical standard', 'F2191-0226', 'Dichloroacetic acid 1000 microg/mL in Methyl-tert-butyl ether', 'Dichloroacetic acid solution, for DNA synthesis, 3% in methylene chloride']"
108;2,2,2-trifluoroethanol;-1;C2H3F3O;100.04;C(C(F)(F)F)O;6409;355.1;-81.5;-69.6;;;-4.3;-7.6;-6.0;-6.2;12.4;23.5;;;"['2,2,2-TRIFLUOROETHANOL', '75-89-8', 'Trifluoroethanol', 'Ethanol, 2,2,2-trifluoro-', 'trifluoro ethanol', 'Trifluoroethyl alcohol', '2,2,2-Trifluoroethan-1-Ol', '2,2,2-Trifluoroethyl alcohol', 'Fluorinol 85', 'tfetoh', 'TFE', 'Perfluoro-1,1-dihydroethanol', 'CF3CH2OH', 'NSC 451', '2,2,2-trifluoro-ethanol', 'beta,beta,beta-Trifluoroethyl alcohol', 'UNII-8T8I76KYF1', 'TFEA', '2,2,2-TRIFLUORETHANOL', '1h,1h-trifluoroethanol', 'MFCD00004672', 'ethanol, 2,2,2-trifluoro', '8T8I76KYF1', 'CHEBI:42330', 'BETA,BETA,BETA-TRIFLUOROETHANOL', '.beta.,.beta.,.beta.-Trifluoroethyl alcohol', 'ETF', 'EINECS 200-913-6', 'BRN 1733203', 'trifluorethanol', 'trifluroethanol', 'AI3-25486', 'trifluoroethylalcohol', '2,2-Trifluoroethanol', '2,2,-trifluoroethanol', '2,2,2trifluoroethanol', '2,2,2-trifluoroetanol', '2,2,2-trifluroethanol', '2 2 2-trifluoroethanol', '2,2,2 trifluoroethanol', '2.2,2-trifluoroethanol', '2.2.2-trifluoroethanol', '2,2,2-trifluoroethanole', 'WLN: Q1XFFF', '2,2,2-trifloro ethanol', 'DSSTox_CID_1751', '2,2,2 trifluoro-ethanol', '2,2,2,-trifluoroethanol', '2,2,2-tri-fluoroethanol', '2,2,2-trifluoro ethanol', 'Trifluoroethanol (Related)', 'ACMC-209p0p', 'EC 200-913-6', '2,2-Trifluoroethyl alcohol', 'SCHEMBL4869', '2,2,2-trifluoro -ethanol', 'DSSTox_RID_76304', '2,2,2-trifluoroethylalcohol', 'DSSTox_GSID_21751', '4-01-00-01370 (Beilstein Handbook Reference)', '1,1,1-Trifluoro-2-ethanol', 'CHEMBL116675', 'Fluorotelomer (linear) alcohols', 'NSC451', 'DTXSID0021751', 'Trifluoroethyl alcohol (Related)', 'beta, beta, beta-trifluoroethanol', 'DTXSID10893581', 'DTXSID90893802', 'NSC-451', 'ETHANOL,2,2,2-TRIFLUORO', 'ACT10236', 'BCP31089', 'ZINC3860799', 'Tox21_200905', '2,2,2-Trifluoroethanol, NMR grade', 'BBL008539', 'Fluorotelomer (linear) n:2 alcohols', 'STK260853', '.beta.,.beta.-Trifluoroethyl alcohol', 'AKOS000119834', 'AS02919', 'DB03226', 'MCULE-5503592317', 'CAS-75-89-8', 'NCGC00248871-01', 'NCGC00258459-01', '2,2,2-TRIFLUORO ETHYL AMINE HCL', 'BP-21406', 'VS-01941', 'AB0007403', 'AM20100728', 'T0435', 'C93508', '32487-EP2274983A1', '32487-EP2289868A1', '32487-EP2289892A1', '32487-EP2295437A1', '32487-EP2298775A1', '32487-EP2301918A1', '32487-EP2301933A1', '32487-EP2308492A1', '32487-EP2308857A1', '32487-EP2308864A1', '32487-EP2311827A1', '2,2,2-Trifluoroethanol, ReagentPlus(R), >=99%', '2,2,2-Trifluoroethanol redistilled from glass grade', 'J-506750', 'Q2474643', 'F0001-1907', '2,2,2-Trifluoroethanol, analytical standard, for NMR spectroscopy', 'Trifluoroethanol;Ethanol, 2,2,2-trifluoro-;Trifluoroethyl alcohol', '2,2,2-Trifluoroethanol, BioUltra, for molecular biology, >=99.0% (GC)']"
109;1,1,1,3,3,3-hexafluoropropan-2-ol;-1;C3H2F6O;168.04;C(C(F)(F)F)(C(F)(F)F)O;13529;338.0;-68.1;;;;-3.8;-8.5;-6.6;-6.9;9.3;;;;['1,1,1,3,3,3-Hexafluoro-2-propanol', '920-66-1', 'Hexafluoroisopropanol', '1,1,1,3,3,3-HEXAFLUOROPROPAN-2-OL', 'HFIP', 'Hexafluoro-2-propanol', 'Hexafluoroisopropyl alcohol', '1,1,1,3,3,3-Hexafluoroisopropanol', 'Bis(trifluoromethyl)methanol', '2H-Hexafluoroisopropanol', '2-Propanol, 1,1,1,3,3,3-hexafluoro-', '1,1,1,3,3,3-Hexafluoroisopropyl alcohol', '2,2,2-Trifluoro-1-(trifluoromethyl)ethanol', 'NSC 96336', 'UNII-3D632GYQ50', '1,1,1,3,3,3-Hexafluoropropanol', 'MFCD00011651', 'Ethanol, 2,2,2-trifluoro-1-(trifluoromethyl)-', '1,1,1,3,3,3-hexafluoro-propan-2-ol', 'CHEBI:63104', '3D632GYQ50', '1,1,1,3,3,3-Hexafluoro-2-hydroxypropane', '1,1,1,3,3,3-HEXAFLUORO-ISOPROPANOL', '1 1 1 3 3 3-hexafluoroisopropanol', '1,1,1,3,3,3-hexafluoropropanol-2', '1,1,1,3,3,3-hexafluoro propan-2-ol', 'CCRIS 6043', '2H-Perfluoro-2-propanol', 'EINECS 213-059-4', '2H-Hexafluoropropan-2-ol', 'BRN 1841007', 'AI3-29336', 'hexafluorisopropanol', 'CFH', 'WLN: FXFFYQXFFF', '.HFIP', 'ACMC-1AHST', 'SCHEMBL199', 'CF3CH(OH)CF3', 'EC 213-059-4', '(CF3)2CHOH', 'NCIOpen2_001854', 'Sevoflurane related compound C', 'CHEMBL1231750', 'DTXSID1022134', '2-Propanol,hexafluoro-(8ci,9ci)', '1,1,3,3,3-Hexafluoroisopropanol', 'BCP05614', 'NSC96336', 'ZINC3860857', 'CH0029', 'NSC-96336', '1,1,3,3,3-Hexafluoro-2-propanol', 'AKOS003791253', '1,1,1,3,3,3-hexafluoro isopropanol', '2-Propanol,1,1,3,3,3-hexafluoro-', 'CM10055', 'LS40314', 'MCULE-4865132613', '1,1,3,3,3-Hexafluoroisopropyl alcohol', '2,2-Trifluoro-1-(trifluoromethyl)ethanol', 'AS-19154', 'BP-21416', 'CS-0017220', 'Ethanol,2,2-trifluoro-1-(trifluoromethyl)-', 'FT-0605913', 'FT-0690752', 'H0424', 'X4902', '49196-EP2311823A1', '1,1,1,3,3,3-Hexafluoro-2-propanol, >=99%', '105113-EP2299326A1', 'SR-01000944926', 'Q-101270', 'Q1123466', 'SR-01000944926-1', '1,1,1,3,3,3-Hexafluoro-2-propanol (Peptide Grade)', '1,1,1,3,3,3-Hexafluoro-2-propanol, >=99.5%', 'F9994-0607', '1,1,1,3,3,3-Hexafluoro-2-propanol high purity grade 99.95+%', '1,1,1,3,3,3-Hexafluoro-2-propanol, puriss., >=99.0% (GC)', '1,1,1,3,3,3-Hexafluoro-2-propanol glass distilled, derivatization grade', '1,1,1,3,3,3-Hexafluoro-2-propanol, for GC derivatization, >=99.8%', 'Sevoflurane Related Compound C, United States Pharmacopeia (USP) Reference Standard']
110;2-chlorophenol;-1;C6H5ClO;128.55;C1=CC=C(C(=C1)O)Cl;7245;337.7;-69.6;;;-67.0;-4.5;-9.8;-7.9;-8.0;8.5;;;13;['2-CHLOROPHENOL', 'o-Chlorophenol', '95-57-8', 'Phenol, 2-chloro-', '2-Hydroxychlorobenzene', 'o-Chlorphenol', 'CHLOROPHENOL', '2-Chloro-1-hydroxybenzene', 'o-Chlorophenic acid', 'Phenol, o-chloro-', '2-chloro-phenol', 'RCRA waste number U048', 'UNII-K9KAV4K6BN', 'NSC 2870', 'MFCD00002159', 'K9KAV4K6BN', '1-Chloro-2-hydroxybenzene', 'CHEBI:47083', 'Septi-Kleen', 'DSSTox_CID_1544', '2-Chlorophenol, >=99%', 'DSSTox_RID_76202', 'DSSTox_GSID_21544', 'Pine-O Disinfectant', 'Caswell No. 203', 'o-Chlorphenol [German]', 'ortho-chlorophenol', 'Phenol, chloro-', 'CAS-95-57-8', '2CH', 'CCRIS 640', 'HSDB 1415', 'EINECS 202-433-2', 'RCRA waste no. U048', 'EPA Pesticide Chemical Code 062204', 'orthochlorophenol', 'AI3-09060', '2-chloro phenol', '1wbo', 'o-Chlorophenol, solid', 'o-Chlorophenol, liquid', 'Chlorophenol (Related)', 'PHENOL,2-CHLORO', '2-Chlorophenol, 98%', 'WLN: QR BG', '2-Chlorophenol (2-CP)', 'ACMC-20aj05', 'EC 202-433-2', 'SCHEMBL12279', 'MLS002454425', 'BIDD:ER0681', 'CHEMBL108877', 'DTXSID5021544', 'BDBM36301', 'NSC2870', 'HMS2267F05', 'ZINC402767', 'AMY40778', 'CS-D1478', 'NSC-2870', 'Tox21_201410', 'Tox21_300340', 'STL281867', 'AKOS000118966', 'DB03110', 'MCULE-3004295061', 'NCGC00091286-01', 'NCGC00091286-02', 'NCGC00091286-03', 'NCGC00254422-01', 'NCGC00258961-01', '2-Chlorophenol 10 microg/mL in Methanol', '25167-80-0', 'PS-11957', 'SMR000112048', '2-Chlorophenol 100 microg/mL in Methanol', 'p-Phenylenediamine-o-chlorophenol copolymer', 'DB-057591', 'FT-0611987', '2-Chlorophenol, SAJ first grade, >=99.0%', '93918-EP2269977A2', '93918-EP2305625A1', '2-Chlorophenol, PESTANAL(R), analytical standard', 'Q176486', 'J-509162', 'F0001-2274', 'o-Chlorophenol, solid [UN2020]  [Keep away from food]', '2-Chlorophenol, certified reference material, TraceCERT(R)', 'o-Chlorophenol, liquid [UN2021]  [Keep away from food]', 'UNII-AZ1041M258 component ISPYQTSUDJAMAB-UHFFFAOYSA-N', 'UNII-E9JIO40PSX component ISPYQTSUDJAMAB-UHFFFAOYSA-N']
111;4-chlorophenol;-1;C6H5ClO;128.55;C1=CC(=CC=C1O)Cl;4684;336.5;-68.8;;;;-6.2;-12.5;-10.5;-10.7;9.4;;;;['4-CHLOROPHENOL', 'p-Chlorophenol', '106-48-9', 'parachlorophenol', 'Phenol, 4-chloro-', '4-Hydroxychlorobenzene', 'Phenol, p-chloro-', 'Applied 3-78', '4-Monochlorophenol', 'p-Chlorophenic acid', 'p-Chlorfenol', '4-Chloro-1-hydroxybenzene', 'p-Chlorfenol [Czech]', '4-Chlorphenol', '4-chloro-phenol', 'NSC 2877', 'UNII-3DLC36A01X', 'MFCD00002318', 'Parachlorophenol (JAN/USP)', '3DLC36A01X', 'CHEBI:28078', 'NCGC00090814-01', 'DSSTox_CID_1871', 'DSSTox_RID_76376', 'DSSTox_GSID_21871', 'p-Chlorophenol, liquid [UN2021]  [Keep away from food]', 'p-Chlorophenol, solid [UN2020]  [Keep away from food]', 'Parachlorophenol [USP]', 'CAS-106-48-9', 'CCRIS 642', 'HSDB 1414', 'EINECS 203-402-6', '4chlorophenol', 'p-chloro phenol', 'AI3-19422', 'para-chlorophenol', 'parachloro phenol', '4-chloro phenol', '4CH', 'Parachlorophenol,(S)', 'p-Chlorophenol, solid', 'p-Chlorophenol, liquid', 'Spectrum_000939', 'Spectrum2_000968', 'Spectrum3_000539', 'Spectrum4_000468', 'Spectrum5_001228', 'PARA CHLORO PHENOL', 'CHLOROPHENOL(4-)', 'WLN: QR DG', '4-ClC6H4OH', 'ACMC-2098jw', 'bmse000461', 'EC 203-402-6', '4-Chlorophenol, >=99%', 'SCHEMBL28864', 'BSPBio_002157', 'KBioGR_000916', 'KBioSS_001419', 'MLS002454432', 'BIDD:ER0011', 'CHEMBL57053', 'DivK1c_000310', 'SPECTRUM1500460', 'SPBio_000975', 'PARAGOS 390356', 'ZINC1885', 'DTXSID1021871', 'BDBM36299', 'HMS500P12', 'KBio1_000310', 'KBio2_001419', 'KBio2_003987', 'KBio2_006555', 'KBio3_001657', 'RARECHEM FH 2C 0018', 'TIMTEC-BB SBB040864', 'NSC2877', 'NINDS_000310', 'OTAVA-BB 1506172', 'HMS1920F08', 'HMS2091N08', 'HMS2230B13', 'HMS3373O02', 'LABOTEST-BB LTBB002362', 'Pharmakon1600-01500460', '1-(4-CHLOROPHENOXY)-1-CHLORO-3,3-DIMETHYL-2-BUTANONE', '1-CHLORO-4-HYDROXY-BENZENE', 'NSC-2877', 'AKOS BBS-00004332', 'Tox21_111028', 'Tox21_201704', 'Tox21_302860', 'CCG-40184', 'NSC757263', 'STL194293', '4-Chlorophenol, for synthesis, 98%', 'AKOS000118967', 'Tox21_111028_1', 'AS00215', 'DB13154', 'MCULE-4022476067', 'NSC-757263', 'IDI1_000310', 'NCGC00090814-02', 'NCGC00090814-03', 'NCGC00090814-04', 'NCGC00090814-05', 'NCGC00090814-07', 'NCGC00256497-01', 'NCGC00259253-01', '4-Chlorophenol 10 microg/mL in Methanol', 'SMR001252242', '4-Chlorophenol 100 microg/mL in Methanol', 'SBI-0051474.P003', 'DB-028832', '4-Chlorophenol, puriss., >=99.0% (GC)', 'CS-0005709', 'FT-0618238', 'C02124', 'D00149', '93919-EP2269977A2', '93919-EP2272509A1', '93919-EP2277858A1', '93919-EP2284157A1', '93919-EP2298743A1', '93919-EP2298747A1', '93919-EP2298750A1', '93919-EP2305625A1', 'AB00052066_06', '148113-EP2269977A2', '148113-EP2280005A1', '148113-EP2289884A1', '4-Chlorophenol, PESTANAL(R), analytical standard', 'SR-05000001691', 'J-001599', 'Q2179668', 'SR-05000001691-1', 'BRD-K40992116-001-05-5', 'F0001-0124', 'Z1262246118', 'UNII-AZ1041M258 component WXNZTHHGJRFXKQ-UHFFFAOYSA-N', 'UNII-E9JIO40PSX component WXNZTHHGJRFXKQ-UHFFFAOYSA-N', 'Parachlorophenol, United States Pharmacopeia (USP) Reference Standard', '4-Chlorophenol solution, 725 mg/L in H2O, for AOX determination (according to DIN 38409-H14)']
112;3-chloroaniline;1;C6H6ClN;127.57;C1=CC(=CC(=C1)Cl)N;7932;199.7;-71.9;;;-76.6;-5.8;-10.8;-9.5;-9.2;3.5;;;4.5;['3-CHLOROANILINE', '108-42-9', 'm-Chloroaniline', '3-Chlorobenzenamine', 'Benzenamine, 3-chloro-', 'm-Chloraniline', '3-Chlorophenylamine', 'Orange GC Base', 'm-Chlorophenylamine', 'm-Aminochlorobenzene', 'm-Chloroaminobenzene', 'Aniline, m-chloro-', '3-Cloroaniline', 'Fast Orange GC Base', '3-Chlooranilinen', '1-Amino-3-chlorobenzene', '3-chloroanaline', 'UNII-6GKR52SKIY', 'NSC 17581', '3-Chloro-phenylamine', '3-CHLORO-ANILINE', '6GKR52SKIY', 'Azoic diazo component 2, base', 'DTXSID0024761', 'Benzenamine, 3-chloro-, homopolymer', 'DSSTox_CID_4761', 'DSSTox_RID_77521', 'DSSTox_GSID_24761', 'meta-Aminochlorobenzene', '3-Chlooranilinen [Dutch]', '3-Cloroaniline [Italian]', 'meta-chloroaniline', '104350-18-7', 'CAS-108-42-9', 'CCRIS 3402', 'HSDB 2046', 'EINECS 203-581-0', 'AI3-12126', 'm-Chloro aniline', '3-chloro aniline', '3- Chloroaniline', '3-chlorophenyl amine', 'amino 3 chlorobenzene', 'Aniline, 3-chloro-', '(3-chlorophenyl)amine', '(3-chlorophenyl)-amine', '3-Chloroaniline, 99%', 'Benzeneamine, 3-chloro-', 'ACMC-1C2VE', 'WLN: ZR CG', 'EC 203-581-0', 'SCHEMBL33289', 'BIDD:GT0269', 'CHEMBL325415', 'ZINC47986', '(3-Chlorophenylamine)radical anion', 'BCP27382', 'NSC17581', 'STR00034', 'Tox21_202237', 'Tox21_303199', '3-Chloroaniline(3-Chlorobenzenamine)', 'CK1168', 'MFCD00007765', 'NSC-17581', 'STL168886', 'AKOS000119145', 'AM10489', 'AS04638', 'MCULE-7601884861', 'PS-5280', 'NCGC00091547-01', 'NCGC00091547-02', 'NCGC00256958-01', 'NCGC00259786-01', 'BP-21058', '3-Chloroaniline 100 microg/mL in Methanol', 'DB-059756', 'FT-0615450', '3-Chloroaniline, puriss., >=99.0% (GC)', '58859-EP2305682A1', '58859-EP2308879A1', '79535-EP2305695A2', '79535-EP2305696A2', '79535-EP2305697A2', '79535-EP2305698A2', '100196-EP2269990A1', '100196-EP2270008A1', '100196-EP2275404A1', '100196-EP2280001A1', '100196-EP2281563A1', '100196-EP2284157A1', '100196-EP2292617A1', '100196-EP2298746A1', '100196-EP2301923A1', '3-Chloroaniline, PESTANAL(R), analytical standard', 'Q2497496', 'W-108719', 'Z57127557', 'F2190-0429']