Number;IUPAC_name;Charge;Molecular Formula;Molecular Weight [g/mol];Isomeric SMILES;Pubchem CID;GasPhaseAcidity_B2PLYP//DLPNO-CCSD(T) [kcal/mol];GSolv_Ion_Water [kcal/mol];GSolv_Ion_DMSO [kcal/mol];GSolv_Ion_Acetonitrile [kcal/mol];GSolv_Ion_MeOH [kcal/mol];Gsolv_Neutral_Water_exp [kcal/mol];Gsolv_Neutral_DMSO_TZVPD-Fine [kcal/mol];Gsolv_Neutral_Acetonitrile_TZVPD-Fine [kcal/mol];Gsolv_Neutral_MeOH_TZVPD-Fine [kcal/mol];pka_water;pka_DMSO;pka_Acetonitrile;pka_MeOH;Synonyms
104;chloroform;-1;CHCl3;119.37;C(Cl)(Cl)Cl;6212;351.5;-58.8;;;;-1.1;-4.4;-4.5;-4.0;24;;;;"['CHLOROFORM', 'Trichloromethane', '67-66-3', 'Methane, trichloro-', 'Trichlormethan', 'Formyl trichloride', 'Trichloroform', 'Methane trichloride', 'Methenyl trichloride', 'Methyl trichloride', 'Chloroforme', 'CHCl3', 'Cloroformio', 'Triclorometano', 'Trichloormethaan', 'Freon 20', 'R 20 (Refrigerant)', '1,1,1-Trichloromethane', 'RCRA waste number U044', 'Methenyl chloride', 'NCI-C02686', 'Methylidyne trichloride', 'Refrigerant R20', 'HSDB 56', 'trichloro-methane', 'R 20', 'NSC 77361', 'UNII-7V31YC746X', 'Chloroform [UN1888] [Poison]', 'chloroform (trichloromethane)', 'CHEBI:35255', '7V31YC746X', 'NCGC00090794-01', 'chloroform CHCl3', 'Chloroform, HPLC Grade', 'DSSTox_CID_306', 'DSSTox_RID_75501', 'DSSTox_GSID_20306', 'Chloroform, analytical standard', 'Chloroforme [French]', 'Caswell No. 192', 'Cloroformio [Italian]', 'Trichlormethan [Czech]', 'Chloroform [NF XVII]', 'Trichloormethaan [Dutch]', 'Triclorometano [Italian]', 'MFCD00000826', 'CAS-67-66-3', 'Chloroform [NF]', 'CCRIS 137', 'CHLOROFORM, ACS', 'CHLOROFORMWith Amylene', 'CHLOROFORMWith Ethanol', 'EINECS 200-663-8', 'UN1888', 'RCRA waste no. U044', 'EPA Pesticide Chemical Code 020701', 'BRN 1731042', 'chlorform', 'chloroforrn', 'cloroform', 'trichlormethane', 'trichlorocarbon', 'chloro form', 'chloro-form', 'Chloroform-', 'AI3-24207', 'Chloroform, for HPLC, >=99.8%, contains 0.5-1.0% ethanol as stabilizer', 'trichloro- methane', 'Chloroform solution', 'methane   trichloride', 'tris(chloranyl)methane', 'CCl3H', 'HCCl3', 'Chloroform, for HPLC', 'Trichloromethane, 9CI', 'Chloroform with amylene', 'Chloroform, ethanol-free', 'chloroformium pro narcosi', 'WLN: GYGG', 'Aqualine&trade; Matrix K', 'EC 200-663-8', '4-01-00-00042 (Beilstein Handbook Reference)', 'CHEMBL44618', 'Chloroform, Environmental Grade', 'Chloroform, p.a., 99.8%', 'GTPL2503', 'Chloroform - Reagent Grade ACS', 'DTXSID1020306', 'R 20 (VAN)', 'Chloroform with Amylene HPLC grade', 'Chloroform, Spectrophotometric Grade', 'NSC77361', 'ZINC8214524', 'Chloroform (stabilized with ethanol)', 'Tox21_111024', 'Tox21_202494', '8296AF', 'Chloroform, for HPLC, >=99.5%', 'Chloroform, for HPLC, >=99.8%', 'NSC-77361', 'AKOS000269026', 'Chloroform 100 microg/mL in Methanol', 'DB11387', 'MCULE-5607930311', 'UN 1888', 'Chloroform 5000 microg/mL in Methanol', 'Chloroform, purification grade, >=99%', 'NCGC00090794-02', 'NCGC00260043-01', 'F 20', 'Trichloromethane 10 microg/mL in Methanol', 'Chloroform, JIS special grade, >=99.0%', 'Trichloromethane 100 microg/mL in Methanol', 'C0819', 'FT-0623661', 'Trichloromethane 5000 microg/mL in Methanol', 'Y1314', 'Chloroform, HPLC grade stabilized with ethanol', 'Chloroform (stabilized with 2-Methyl-2-butene)', 'Chloroform, SAJ super special grade, >=99.0%', 'A835850', 'L023971', 'Q172275', 'BRD-K88785477-001-01-8', 'Chloroform, for HPLC, >=99.8%, amylene stabilized', 'Chloroform, 99.8%, ACS Reagent stabilized with Ethanol', 'Chloroform, technical, amylene stabilized, >=99% (GC)', 'F0001-1775', 'Chloroform, technical grade, 95%, contains 50 ppm Amylene', 'Chloroform, anhydrous, contains amylenes as stabilizer, >=99%', 'Chloroform, for HPLC, >=99.8% (chloroform + ethanol, GC)', 'Chloroform, for residue analysis, suitable for 5000 per JIS', 'Chloroform solution, 200 mug/mL in methanol, analytical standard', 'Chloroform stabilized with 50-200 ppm Amylene ACS Reagent Grade', 'Chloroform, >=99%, PCR Reagent, contains amylenes as stabilizer', 'Chloroform, ACS reagent, >=99.8%, contains amylenes as stabilizer', 'Chloroform, AR, contains 1-2% ethanol as stabilizer, >=99.5%', 'Chloroform, AR, contains 100 ppm amylene as stabilizer, >=99.5%', 'Chloroform, contains 100-200 ppm amylenes as stabilizer, >=99.5%', 'Chloroform, contains amylenes as stabilizer, ACS reagent, >=99.8%', 'Chloroform, contains ethanol as stabilizer, ACS reagent, >=99.8%', 'Chloroform, LR, contains 100 ppm amylene as stabilizer, >=99%', 'Chloroform, p.a., ACS reagent, 99.8%, contains 0.005% Amylene', 'Chloroform, SAJ first grade, >=99.0%, contains 0.4-0.8% ethanol', 'Chloroform, UV HPLC spectroscopic, 99.9%, contains 50 ppm Amylene', 'Chloroform solution, certified reference material, 5000 mug/mL in methanol', 'Chloroform, ACS reagent, Reag. Ph. Eur., contains ethanol as stabilizer', 'Chloroform, anhydrous, >=99%, contains 0.5-1.0% ethanol as stabilizer', 'Chloroform, Pharmaceutical Secondary Standard; Certified Reference Material', 'Chloroform, puriss. p.a., reag. ISO, reag. Ph. Eur., 99.0-99.4% (GC)', 'Chloroform, suitable for 300 per JIS, >=99.0%, for residue analysis', 'Chloroform, UV HPLC spectroscopic, 99.0%, contains 0.6-1.0% Ethanol', 'Chloroform solution, NIST standard reference material, 1% in acetone-d6 (99.9 atom % D)', 'Chloroform solution, NMR reference standard, 1% in acetone-d6 (99.9 atom % D)', 'Chloroform solution, NMR reference standard, 3% in acetone-d6 (99.9 atom % D)', 'Chloroform, ACS reagent, >=99.8%, contains 0.5-1.0% ethanol as stabilizer', 'Chloroform, ACS spectrophotometric grade, >=99.8%, contains amylenes as stabilizer', 'Chloroform, biotech. grade, >=99.8%, contains 0.5-1.0% ethanol as stabilizer', 'Chloroform, p.a., ACS reagent, reag. ISO, 99.8%, contains 50 ppm Amylene', 'Chloroform, puriss. p.a., ACS reagent, >=99.8% (chloroform + ethanol, GC)', 'Chloroform, ReagentPlus(R), >=99.8%, contains 0.5-1.0% ethanol as stabilizer', 'Residual Solvent Class 2 - Chloroform, United States Pharmacopeia (USP) Reference Standard', '8013-54-5', 'Chloroform solution, NMR reference standard, 0.3% in acetone-d6 (99.9 atom % D), NMR tube size 3 mm x 8 in.', 'Chloroform solution, NMR reference standard, 0.3% in acetone-d6 (99.9 atom % D), NMR tube size 5 mm x 8 in.', 'Chloroform solution, NMR reference standard, 1% in acetone-d6 (99,9 atom % D), TMS 0.1 %, NMR tube size 5 mm x 8 in.', 'Chloroform solution, NMR reference standard, 1% in acetone-d6 (99.9 atom % D), NMR tube size 10 mm x 8 in.', 'Chloroform solution, NMR reference standard, 1% in acetone-d6 (99.9 atom % D), NMR tube size 3 mm x 8 in.', 'Chloroform solution, NMR reference standard, 1% in acetone-d6 (99.9 atom % D), NMR tube size 4 mm x 8 in.', 'Chloroform solution, NMR reference standard, 1% in acetone-d6 (99.9 atom % D), NMR tube size 8 mm x 8 in.', 'Chloroform solution, NMR reference standard, 10% in acetone-d6 (99.9 atom % D), NMR tube size 3 mm x 8 in.', 'Chloroform solution, NMR reference standard, 2% in acetone-d6 (99.9 atom % D), NMR tube size 5 mm x 8 in.', 'Chloroform solution, NMR reference standard, 2% in chloroform-d (99.8 atom % D), NMR tube size 3 mm x 8 in.', 'Chloroform solution, NMR reference standard, 2% in chloroform-d (99.8 atom % D), NMR tube size 5 mm x 8 in.', 'Chloroform solution, NMR reference standard, 20% in acetone-d6 (99.9 atom % D), NMR tube size 5 mm x 8 in.', 'Chloroform solution, NMR reference standard, 3% in acetone-d6 (99.9 atom % D), TMS 0.2 %, NMR tube size 3 mm x 8 in.', 'Chloroform solution, NMR reference standard, 3% in acetone-d6 (99.9 atom % D), TMS 0.2 %, NMR tube size 5 mm x 8 in.', 'Chloroform solution, NMR reference standard, 5% in acetone-d6 (99.9 atom % D), chromium(III) acetylacetonate 0.2 %', 'Chloroform solution, NMR reference standard, 5% in acetone-d6 (99.9 atom % D), chromium(III) acetylacetonate 2 %, NMR tube size 10 mm x 8 in.', 'Chloroform solution, NMR reference standard, 5% in acetone-d6 (99.9 atom % D), NMR tube size 3 mm x 8 in.', 'Chloroform solution, NMR reference standard, 5% in acetone-d6 (99.9 atom % D), NMR tube size 5 mm x 8 in.', 'Chloroform solution, NMR reference standard, 50% in acetone-d6 (99.9 atom % D), chromium(III) acetylacetonate 0.2 %', 'Chloroform solution, NMR reference standard, 50% in acetone-d6 (99.9 atom % D), chromium(III) acetylacetonate 0.2 %, NMR tube size 10 mm x 8 in.', 'Chloroform, ACS spectrophotometric grade, >=99.8%, contains 0.5-1.0% ethanol as stabilizer', 'Chloroform, contains ethanol as stabilizer, meets analytical specification of DAB9, BP, 99-99.4% (GC)', 'Chloroform, HPLC Plus, for HPLC, GC, and residue analysis, >=99.9%, contains 0.5-1.0% ethanol as stabilizer', 'Chloroform, HPLC Plus, for HPLC, GC, and residue analysis, >=99.9%, contains amylenes as stabilizer', 'Residual Solvent - Chloroform, Pharmaceutical Secondary Standard; Certified Reference Material']"
105;2,2,2-trifluoroacetic acid;-1;C2HF3O2;114.02;C(=O)(C(F)(F)F)O;6422;315.6;-61.2;-60.0;-44.9;;-7.3;-10.2;-7.6;-8.3;0.5;3.5;12.7;;"['Trifluoroacetic acid', '76-05-1', 'Perfluoroacetic acid', 'Trifluoracetic acid', 'Trifluoroethanoic acid', '2,2,2-trifluoroacetic acid', 'Acetic acid, trifluoro-', 'trifluoroaceticacid', 'trifluoro acetic acid', 'TFA', 'trifluoro-acetic acid', 'Kyselina trifluoroctova', 'CF3COOH', 'trifluroacetic acid', 'MFCD00004169', 'NSC 77366', 'triflouroacetic acid', 'UNII-E5R8Z4G708', 'triflouro acetic acid', 'Acetic acid, 2,2,2-trifluoro-', 'water-trifluoroacetic acid', 'peptide trifluoroacetic acid', 'Acetic acid-d, trifluoro-', 'wash buffer', '2,2,2-trifluoro-acetic acid', 'C2HF3O2', 'DTXSID9041578', 'CHEBI:45892', 'Trifluoroacetic acid, HPLC Grade', 'E5R8Z4G708', 'Trifluoroacetic acid, biochemical grade', 'Acetic acid-d, 2,2,2-trifluoro-', 'r3, trifluoroacetic acid', '0.1% TFA in Water', 'r4a, trifluoroacetic acid', '0.1% TFA in ACN', '0.1% TFA in ACN,', '0.1% Trifluoroacetic Acid in Water (v/v)', 'Trifluoroacetic acid, ReagentPlus(R), 99%', 'Kyselina trifluoroctova [Czech]', '0.1% Trifluoroacetic Acid in Acetonitrile (v/v)', 'EINECS 200-929-3', 'UN2699', 'IPC-PFFA-2', 'BRN 0742035', 'AI3-28549', 'trifluoraceticacid', 'trifluroaceticacid', 'Aceticacid, 2,2,2-trifluoro-', 'Trifluoressigsaure', 'HSDB 7508', 'Trifluoressigsaeure', 'trifloroacetic acid', 'trifluoroactic acid', 'trifiuoroacetic acid', 'trifluoro aceticacid', 'trifluoroacetic aicd', 'trifluoroacetic-acid', 'trifluoroacteic acid', 'tri-fluoroacetic acid', 'acide trifluoroacetique', 'tri-fluoro acetic acid', 'trifluoro- acetic acid', 'F3CCOOH', 'WLN: QVXFFF', 'CF3CO2H', 'F3CCO2H', 'Perfluoroalkyl carboxylates', 'SCHEMBL474', '0.1% TFA in water,', '0.1% TFA in water;', 'CF3C(O)OH', 'EC 200-929-3', '2,2,2-trifluoracetic acid', 'NCIOpen2_000728', '1,1,1 trifluoroacetic acid', '2,2,2-triflouroacetic acid', 'Trifluoroacetic acid 99%Min', '4-02-00-00458 (Beilstein Handbook Reference)', '0.05% TFA in ACN', '2,2,2,-trifluoroacetic acid', 'CHEMBL506259', 'AMY3605', 'DTXSID00893893', 'DTXSID80892980', '1w70', 's836', 'ACMC-209770', 'ACT08924', 'CS-B0890', 'NSC77366', 'ZINC3860798', 'NSC-77366', 'STL264183', 'Trifluoroacetic acid (Peptide Grade)', 'Trifluoroacetic acid, commercial grade', 'AKOS000118999', 'Trifluoroacetic acid (ACD/Name 4.0)', 'Trifluoroacetic acid, p.a., 99.8%', 'MCULE-9976402631', 'SB13471', 'UN 2699', 'VZ36984', 'Perfluoroalkyl (linear) carboxylic acids', 'Trifluoroacetic acid, analytical standard', 'BP-20560', 'DS-003453', 'FT-0645072', 'Q0053', 'T0431', 'Trifluoroacetic acid, for HPLC, >=99.0%', 'Trifluoroacetic acid, peptide synthesis grade', 'Trifluoroacetic acid, Ultrapure for synthesis', 'Trifluoroacetic acid [UN2699]  [Corrosive]', '2561-EP1441224A2', '2561-EP2269610A2', '2561-EP2269977A2', '2561-EP2269978A2', '2561-EP2269985A2', '2561-EP2269988A2', '2561-EP2269989A1', '2561-EP2269990A1', '2561-EP2269991A2', '2561-EP2269992A1', '2561-EP2270001A1', '2561-EP2270003A1', '2561-EP2270004A1', '2561-EP2270006A1', '2561-EP2270007A1', '2561-EP2270011A1', '2561-EP2270012A1', '2561-EP2270013A1', '2561-EP2270014A1', '2561-EP2270505A1', '2561-EP2272509A1', '2561-EP2272516A2', '2561-EP2272517A1', '2561-EP2272537A2', '2561-EP2272817A1', '2561-EP2272822A1', '2561-EP2272825A2', '2561-EP2272827A1', '2561-EP2272832A1', '2561-EP2272834A1', '2561-EP2272835A1', '2561-EP2272844A1', '2561-EP2272848A1', '2561-EP2275102A1', '2561-EP2275105A1', '2561-EP2275401A1', '2561-EP2275404A1', '2561-EP2275407A1', '2561-EP2275411A2', '2561-EP2275412A1', '2561-EP2275414A1', '2561-EP2275421A1', '2561-EP2277848A1', '2561-EP2277861A1', '2561-EP2277866A1', '2561-EP2277867A2', '2561-EP2277875A2', '2561-EP2277877A1', '2561-EP2277878A1', '2561-EP2277880A1', '2561-EP2277898A2', '2561-EP2280001A1', '2561-EP2280003A2', '2561-EP2280006A1', '2561-EP2280010A2', '2561-EP2280012A2', '2561-EP2281563A1', '2561-EP2281813A1', '2561-EP2281815A1', '2561-EP2281817A1', '2561-EP2281818A1', '2561-EP2281819A1', '2561-EP2281823A2', '2561-EP2284150A2', '2561-EP2284151A2', '2561-EP2284152A2', '2561-EP2284153A2', '2561-EP2284155A2', '2561-EP2284156A2', '2561-EP2284159A1', '2561-EP2284160A1', '2561-EP2284164A2', '2561-EP2284169A1', '2561-EP2284170A1', '2561-EP2284171A1', '2561-EP2284174A1', '2561-EP2284178A2', '2561-EP2284179A2', '2561-EP2284920A1', '2561-EP2286811A1', '2561-EP2287140A2', '2561-EP2287147A2', '2561-EP2287148A2', '2561-EP2287150A2', '2561-EP2287152A2', '2561-EP2287155A1', '2561-EP2287157A1', '2561-EP2287160A1', '2561-EP2287161A1', '2561-EP2287162A1', '2561-EP2287167A1', '2561-EP2289509A2', '2561-EP2289510A1', '2561-EP2289868A1', '2561-EP2289871A1', '2561-EP2289887A2', '2561-EP2289888A2', '2561-EP2289890A1', '2561-EP2289893A1', '2561-EP2289894A2', '2561-EP2289897A1', '2561-EP2289965A1', '2561-EP2292088A1', '2561-EP2292228A1', '2561-EP2292589A1', '2561-EP2292590A2', '2561-EP2292592A1', '2561-EP2292593A2', '2561-EP2292595A1', '2561-EP2292597A1', '2561-EP2292609A1', '2561-EP2292610A1', '2561-EP2292612A2', '2561-EP2292615A1', '2561-EP2292617A1', '2561-EP2292619A1', '2561-EP2292621A1', '2561-EP2292622A1', '2561-EP2292628A2', '2561-EP2295401A2', '2561-EP2295402A2', '2561-EP2295406A1', '2561-EP2295407A1', '2561-EP2295408A1', '2561-EP2295410A1', '2561-EP2295411A1', '2561-EP2295412A1', '2561-EP2295413A1', '2561-EP2295414A1', '2561-EP2295415A1', '2561-EP2295416A2', '2561-EP2295417A1', '2561-EP2295418A1', '2561-EP2295419A2', '2561-EP2295426A1', '2561-EP2295427A1', '2561-EP2295429A1', '2561-EP2295433A2', '2561-EP2295437A1', '2561-EP2295441A2', '2561-EP2298312A1', '2561-EP2298729A1', '2561-EP2298731A1', '2561-EP2298732A1', '2561-EP2298734A2', '2561-EP2298735A1', '2561-EP2298736A1', '2561-EP2298743A1', '2561-EP2298744A2', '2561-EP2298746A1', '2561-EP2298747A1', '2561-EP2298748A2', '2561-EP2298757A2', '2561-EP2298758A1', '2561-EP2298759A1', '2561-EP2298760A1', '2561-EP2298763A1', '2561-EP2298766A1', '2561-EP2298767A1', '2561-EP2298768A1', '2561-EP2298772A1', '2561-EP2298775A1', '2561-EP2298776A1', '2561-EP2298778A1', '2561-EP2298779A1', '2561-EP2299785A1', '2561-EP2301534A1', '2561-EP2301536A1', '2561-EP2301538A1', '2561-EP2301911A1', '2561-EP2301913A1', '2561-EP2301914A1', '2561-EP2301918A1', '2561-EP2301922A1', '2561-EP2301923A1', '2561-EP2301928A1', '2561-EP2301929A1', '2561-EP2301931A1', '2561-EP2301933A1', '2561-EP2301934A1', '2561-EP2301935A1', '2561-EP2301936A1', '2561-EP2301937A1', '2561-EP2301939A1', '2561-EP2301940A1', '2561-EP2305219A1', '2561-EP2305250A1', '2561-EP2305633A1', '2561-EP2305637A2', '2561-EP2305640A2', '2561-EP2305643A1', '2561-EP2305644A1', '2561-EP2305646A1', '2561-EP2305648A1', '2561-EP2305649A1', '2561-EP2305650A1', '2561-EP2305651A1', '2561-EP2305652A2', '2561-EP2305657A2', '2561-EP2305659A1', '2561-EP2305660A1', '2561-EP2305664A1', '2561-EP2305666A1', '2561-EP2305668A1', '2561-EP2305671A1', '2561-EP2305672A1', '2561-EP2305674A1', '2561-EP2305677A1', '2561-EP2305681A1', '2561-EP2305685A1', '2561-EP2305686A1', '2561-EP2305687A1', '2561-EP2306788A1', '2561-EP2306789A1', '2561-EP2308479A2', '2561-EP2308510A1', '2561-EP2308562A2', '2561-EP2308812A2', '2561-EP2308831A1', '2561-EP2308832A1', '2561-EP2308833A2', '2561-EP2308838A1', '2561-EP2308839A1', '2561-EP2308840A1', '2561-EP2308844A2', '2561-EP2308845A2', '2561-EP2308846A2', '2561-EP2308848A1', '2561-EP2308851A1', '2561-EP2308854A1', '2561-EP2308855A1', '2561-EP2308857A1', '2561-EP2308858A1', '2561-EP2308861A1', '2561-EP2308863A1', '2561-EP2308867A2', '2561-EP2308869A1', '2561-EP2308870A2', '2561-EP2308872A1', '2561-EP2308873A1', '2561-EP2308874A1', '2561-EP2308875A1', '2561-EP2308877A1', '2561-EP2308880A1', '2561-EP2308926A1', '2561-EP2311451A1', '2561-EP2311455A1', '2561-EP2311464A1', '2561-EP2311796A1', '2561-EP2311797A1', '2561-EP2311798A1', '2561-EP2311799A1', '2561-EP2311801A1', '2561-EP2311802A1', '2561-EP2311803A1', '2561-EP2311808A1', '2561-EP2311810A1', '2561-EP2311811A1', '2561-EP2311814A1', '2561-EP2311816A1', '2561-EP2311817A1', '2561-EP2311818A1', '2561-EP2311822A1', '2561-EP2311824A1', '2561-EP2311825A1', '2561-EP2311827A1', '2561-EP2311829A1', '2561-EP2311830A1', '2561-EP2311831A1', '2561-EP2311837A1', '2561-EP2311838A1', '2561-EP2311840A1', '2561-EP2311850A1', '2561-EP2314295A1', '2561-EP2314576A1', '2561-EP2314583A1', '2561-EP2314584A1', '2561-EP2314585A1', '2561-EP2314586A1', '2561-EP2314587A1', '2561-EP2314588A1', '2561-EP2314590A1', '2561-EP2316450A1', '2561-EP2316457A1', '2561-EP2316458A1', '2561-EP2316459A1', '2561-EP2316824A1', '2561-EP2316825A1', '2561-EP2316826A1', '2561-EP2316827A1', '2561-EP2316828A1', '2561-EP2316829A1', '2561-EP2316831A1', '2561-EP2316836A1', '2561-EP2371802A1', '2561-EP2371811A2', '2561-EP2371813A1', '2561-EP2374454A1', '2561-EP2374790A1', '2561-EP2380874A2', '6634-EP2269977A2', '6634-EP2270006A1', '6634-EP2284158A1', '6634-EP2305808A1', '36779-EP2277866A1', '36779-EP2292589A1', '36779-EP2292628A2', '36779-EP2295424A1', '36779-EP2295437A1', '36779-EP2298775A1', '36779-EP2311801A1', '36779-EP2311802A1', '36779-EP2311803A1', '107690-EP2270003A1', '107690-EP2298746A1', 'Q412033', 'Acetonitrile with 0.1% Trifluoroacetic Acid (v/v)', 'Q-201877', 'Trifluoroacetic acid, SAJ special grade, >=99.0%', 'Trifluoroacetic acid, Vetec(TM) reagent grade, 99%', 'Acetonitrile with 0.05% Trifluoroacetic Acid (v/v)', 'Trifluoroacetic acid, >=99.995% Trace metals grade', 'Trifluoroacetic acid, UV HPLC spectroscopic, 99.8%', 'F2190-0649', 'Trifluoroacetic acid, anhydrous, ZerO2(TM), >=99.0%', 'Z1258948176', 'Trifluoroacetic acid, puriss. p.a., for HPLC, >=99.0% (GC)', 'UNII-D8690V3244 component DTQVDTLACAAQTR-UHFFFAOYSA-N', 'Trifluoroacetic acid, for protein sequence analysis, >=99.5% (T)', 'Bruker standard solvent, for MALDI MS, 50% ACN + 47.5% H2O + 2.5% TFA', 'Trifluoroacetic acid solution, BioReagent, suitable for protein sequencing, ~25% in H2O', 'Trifluoroacetic acid, >=99%, purified by redistillation, for protein sequencing']"