Number;IUPAC_name;Charge;Molecular Formula;Molecular Weight [g/mol];Isomeric SMILES;Pubchem CID;GasPhaseAcidity_B2PLYP//DLPNO-CCSD(T) [kcal/mol];GSolv_Ion_Water [kcal/mol];GSolv_Ion_DMSO [kcal/mol];GSolv_Ion_Acetonitrile [kcal/mol];GSolv_Ion_MeOH [kcal/mol];Gsolv_Neutral_Water_exp [kcal/mol];Gsolv_Neutral_DMSO_TZVPD-Fine [kcal/mol];Gsolv_Neutral_Acetonitrile_TZVPD-Fine [kcal/mol];Gsolv_Neutral_MeOH_TZVPD-Fine [kcal/mol];pka_water;pka_DMSO;pka_Acetonitrile;pka_MeOH;Synonyms
8;N-methylmethanamine;1;C2H7N;45.08;CNC;674;214.8;-65.1;;;;-4.3;-2.6;-2.9;-4.5;10.7;;;;['dimethylamine', 'N-Methylmethanamine', '124-40-3', 'Methanamine, N-methyl-', 'N,N-Dimethylamine', 'Dimethylamin', 'dimethyl amine', 'dimethyl-amine', 'Dimethylamine anhydrous', 'Dimethylamine (anhydrous)', 'RCRA waste number U092', 'Dimethylamine solution', '(CH3)2NH', 'Dimethylamine  aq', 'NSC 8650', 'UNII-ARQ8157E0Q', 'HNMe2', 'Me2NH', 'Dimethylamine aqueous solution', 'ARQ8157E0Q', 'CHEBI:17170', 'Dimethylamine, purum, >=99.0%', 'MFCD00008288', 'CCRIS 981', 'Dimethylamine solution, 40 wt. % in H2O', 'HSDB 933', 'Dimethylamine, in aqueous solution', 'EINECS 204-697-4', 'Ai3-15638-X', 'UN1032', 'UN1160', 'RCRA waste no. U092', 'dimethlamine', 'dimethlyamine', 'dimethyamine', 'dimethylammonia', 'dimethylarnine', 'dimetylamine', 'dirnethylamine', 'di-methylamine', 'dimetyl amine', 'N,N-dimethylamin', 'N,N dimethylamine', 'N,N dimethyl amine', 'N,N- dimethylamine', 'N,N-dimethyl amine', 'Dimethylamine solution (over 55% but not over 65%)', 'N-methyl-Methanamine', 'Dimethylamine solution (45% or less)', 'N, N-dimethyl amine', 'NHMe2', 'N-methyl-1-methanamine', 'Dimethylamine, anhydrous', 'ACMC-1BQ2Z', 'DSSTox_CID_4057', 'Dimethylamine Reagent Grade', 'NH(Me)2', 'EC 204-697-4', 'Methylaminomethylidyneradical', 'Dimethylamine, >=99.8%', 'DSSTox_RID_77272', 'NCIOpen2_007708', 'DSSTox_GSID_24057', 'Dimethylamine anhydrous (dot)', 'UN 1160 (Salt/Mix)', 'CHEMBL120433', 'Dimethylamine solution (over 45% but not over 55%)', 'GTPL5177', 'NH(CH3)2', 'WLN: 1M1', 'DTXSID5024057', 'NSC8650', 'Dimethylamine, anhydrous, >=99%', 'Dimethylamine (~2.0 M in THF)', 'NSC-8650', 'STR00287', 'Tox21_302439', 'BDBM50416497', 'CO0036', 'Dimethylamine solution 40% in water', 'Dimethylamine, 2M in tetrahydrofuran', 'NSC187661', 'STL263869', 'N-methylmethanamine (ACD/Name 4.0)', 'AKOS008968166', 'Dimethylamine solution 1.0 M in THF', 'Dimethylamine solution 2.0 M in THF', 'MCULE-2809467532', 'NSC-187661', 'UN 1032', 'Dimethylamine solution, 2.0 M in THF', 'Dimethylamine solution 2.0M in Methanol', 'Dimethylamine, 40% w/w aqueous solution', 'NCGC00255288-01', 'CAS-124-40-3', 'Dimethylamine solution, 2.0 M in methanol', 'Dimethylamine solution, CP, 50% in H2O', 'D0643', 'D3292', 'D3936', 'D3948', 'D4198', 'C00543', '13687-EP2269977A2', '13687-EP2269990A1', '13687-EP2269993A1', '13687-EP2269999A1', '13687-EP2270001A1', '13687-EP2270006A1', '13687-EP2270014A1', '13687-EP2272822A1', '13687-EP2272827A1', '13687-EP2272832A1', '13687-EP2272834A1', '13687-EP2272972A1', '13687-EP2272973A1', '13687-EP2274983A1', '13687-EP2275398A1', '13687-EP2275404A1', '13687-EP2275412A1', '13687-EP2275414A1', '13687-EP2277872A1', '13687-EP2277875A2', '13687-EP2280006A1', '13687-EP2280008A2', '13687-EP2280010A2', '13687-EP2281563A1', '13687-EP2281813A1', '13687-EP2281818A1', '13687-EP2281822A1', '13687-EP2284157A1', '13687-EP2284160A1', '13687-EP2284169A1', '13687-EP2286811A1', '13687-EP2287152A2', '13687-EP2287155A1', '13687-EP2287161A1', '13687-EP2287162A1', '13687-EP2287163A1', '13687-EP2287165A2', '13687-EP2287166A2', '13687-EP2289871A1', '13687-EP2289891A2', '13687-EP2292228A1', '13687-EP2292597A1', '13687-EP2292615A1', '13687-EP2292620A2', '13687-EP2292628A2', '13687-EP2295415A1', '13687-EP2295424A1', '13687-EP2295429A1', '13687-EP2295433A2', '13687-EP2295437A1', '13687-EP2298734A2', '13687-EP2298742A1', '13687-EP2298761A1', '13687-EP2298764A1', '13687-EP2298765A1', '13687-EP2298770A1', '13687-EP2298775A1', '13687-EP2301928A1', '13687-EP2301929A1', '13687-EP2301933A1', '13687-EP2301935A1', '13687-EP2305250A1', '13687-EP2305629A1', '13687-EP2305651A1', '13687-EP2305652A2', '13687-EP2305667A2', '13687-EP2305673A1', '13687-EP2305674A1', '13687-EP2305678A1', '13687-EP2305679A1', '13687-EP2305682A1', '13687-EP2305687A1', '13687-EP2308479A2', '13687-EP2308510A1', '13687-EP2308562A2', '13687-EP2308812A2', '13687-EP2308828A2', '13687-EP2308849A1', '13687-EP2308854A1', '13687-EP2308867A2', '13687-EP2308870A2', '13687-EP2308873A1', '13687-EP2308875A1', '13687-EP2308879A1', '13687-EP2308880A1', '13687-EP2311796A1', '13687-EP2311797A1', '13687-EP2311798A1', '13687-EP2311799A1', '13687-EP2311802A1', '13687-EP2311803A1', '13687-EP2311807A1', '13687-EP2311815A1', '13687-EP2311818A1', '13687-EP2311827A1', '13687-EP2311829A1', '13687-EP2311831A1', '13687-EP2311834A1', '13687-EP2314590A1', '13687-EP2316459A1', '13687-EP2316836A1', '13687-EP2371811A2', '13687-EP2372017A1', '21503-EP2270006A1', '21503-EP2292628A2', '21503-EP2295402A2', '21503-EP2314295A1', '57342-EP2284166A1', '57342-EP2298762A2', '57342-EP2298769A1', '57342-EP2308878A2', '77294-EP2305687A1', '77294-EP2308849A1', '148075-EP2280005A1', '148075-EP2289884A1', 'Q408022', 'Molybdoceric acid (H8 Ce Mo12 O42), eicosahydrate', 'Dimethylamine solution [UN1160]  [Flammable liquid]', 'Dimethylamine, 40% w/w aqueous solution, in Ampoule', 'Dimethylamine, anhydrous [UN1032]  [Flammable gas]', 'F2190-0301', 'Dimethylamine solution, purum, 33% in absolute ethanol (~5.6 M)']
9;N-ethylethanamine;1;C4H11N;73.14;CCNCC;8021;220.2;-59.9;;-70.0;;-4.1;-3.0;-3.6;-5.4;11;;18.8;;['DIETHYLAMINE', 'N-Ethylethanamine', '109-89-7', 'N,N-Diethylamine', 'Ethanamine, N-ethyl-', 'Diethamine', 'Diaethylamin', 'Dwuetyloamina', 'Dietilamina', 'diethyl amine', 'Diethylamin', 'Diethyl-amine', 'UNII-B035PIS86W', 'Et2NH', '(C2H5)2NH', 'B035PIS86W', 'CHEBI:85259', 'MFCD00009032', 'N-Ethyl-Ethanamine', 'Diaethylamin [German]', 'Dietilamina [Italian]', 'Dwuetyloamina [Polish]', 'CCRIS 4792', 'HSDB 524', 'EINECS 203-716-3', 'UN1154', 'dietylamine', 'di-ethylamine', 'AI3-24215', 'N,N-diethyl amine', 'diethylamine (DEA)', 'Diethylamine, 98%', 'Diethylamine Anhydrous', 'Diethylamine, BioXtra', 'HNEt2', 'ACMC-1BS8V', 'DSSTox_CID_1909', 'EC 203-716-3', 'Diethylamine, >=99.5%', 'CHEMBL1189', 'DSSTox_RID_76397', 'DSSTox_GSID_21909', 'Diethylamine, LR, >=99%', '(CH3CH2)2 NH', 'Diethylamine, p.a., 99.0%', 'DTXSID6021909', 'STR00027', 'ZINC1661184', 'Tox21_202506', 'CS0041', 'STL197470', 'Diethylamine, for synthesis, 99.0%', 'AKOS000269031', 'MCULE-6895602113', 'UN 1154', 'Diethylamine, purum, >=99.0% (GC)', 'NCGC00090709-01', 'NCGC00090709-02', 'NCGC00260055-01', 'CAS-109-89-7', 'Diethylamine, SAJ first grade, >=98.0%', 'D0462', 'Diethylamine [UN1154]  [Flammable liquid]', 'Diethylamine, SAJ special grade, >=99.0%', 'FT-0624870', '7514-EP2269610A2', '7514-EP2269977A2', '7514-EP2269989A1', '7514-EP2269999A1', '7514-EP2270002A1', '7514-EP2270006A1', '7514-EP2270010A1', '7514-EP2270011A1', '7514-EP2270014A1', '7514-EP2272509A1', '7514-EP2272516A2', '7514-EP2272517A1', '7514-EP2272537A2', '7514-EP2272817A1', '7514-EP2272822A1', '7514-EP2272825A2', '7514-EP2272832A1', '7514-EP2272841A1', '7514-EP2272844A1', '7514-EP2274983A1', '7514-EP2275412A1', '7514-EP2275420A1', '7514-EP2275421A1', '7514-EP2275424A1', '7514-EP2277848A1', '7514-EP2277863A1', '7514-EP2277867A2', '7514-EP2277875A2', '7514-EP2279750A1', '7514-EP2280000A1', '7514-EP2280003A2', '7514-EP2280006A1', '7514-EP2280008A2', '7514-EP2280010A2', '7514-EP2281563A1', '7514-EP2281813A1', '7514-EP2281822A1', '7514-EP2284157A1', '7514-EP2284159A1', '7514-EP2284160A1', '7514-EP2284172A1', '7514-EP2286811A1', '7514-EP2287152A2', '7514-EP2287157A1', '7514-EP2287160A1', '7514-EP2287163A1', '7514-EP2289510A1', '7514-EP2289868A1', '7514-EP2289883A1', '7514-EP2289891A2', '7514-EP2289896A1', '7514-EP2292576A2', '7514-EP2292592A1', '7514-EP2292593A2', '7514-EP2292597A1', '7514-EP2292610A1', '7514-EP2292612A2', '7514-EP2292619A1', '7514-EP2292630A1', '7514-EP2295399A2', '7514-EP2295407A1', '7514-EP2295409A1', '7514-EP2295411A1', '7514-EP2295415A1', '7514-EP2295416A2', '7514-EP2295423A1', '7514-EP2295432A1', '7514-EP2295437A1', '7514-EP2295503A1', '7514-EP2298734A2', '7514-EP2298736A1', '7514-EP2298742A1', '7514-EP2298743A1', '7514-EP2298748A2', '7514-EP2298750A1', '7514-EP2298755A1', '7514-EP2298761A1', '7514-EP2298764A1', '7514-EP2298765A1', '7514-EP2298767A1', '7514-EP2298768A1', '7514-EP2298770A1', '7514-EP2298775A1', '7514-EP2298778A1', '7514-EP2298779A1', '7514-EP2298828A1', '7514-EP2301627A1', '7514-EP2301923A1', '7514-EP2301928A1', '7514-EP2301931A1', '7514-EP2301936A1', '7514-EP2305250A1', '7514-EP2305257A1', '7514-EP2305651A1', '7514-EP2305652A2', '7514-EP2305667A2', '7514-EP2305673A1', '7514-EP2305676A1', '7514-EP2305677A1', '7514-EP2305678A1', '7514-EP2305679A1', '7514-EP2305682A1', '7514-EP2308510A1', '7514-EP2308562A2', '7514-EP2308812A2', '7514-EP2308828A2', '7514-EP2308838A1', '7514-EP2308840A1', '7514-EP2308851A1', '7514-EP2308854A1', '7514-EP2308873A1', '7514-EP2308875A1', '7514-EP2308879A1', '7514-EP2308880A1', '7514-EP2311808A1', '7514-EP2311824A1', '7514-EP2311829A1', '7514-EP2311831A1', '7514-EP2311834A1', '7514-EP2314295A1', '7514-EP2314584A1', '7514-EP2314585A1', '7514-EP2314587A1', '7514-EP2314588A1', '7514-EP2314590A1', '7514-EP2314593A1', '7514-EP2316457A1', '7514-EP2316458A1', '7514-EP2316459A1', '7514-EP2316470A2', '7514-EP2316824A1', '7514-EP2316825A1', '7514-EP2316826A1', '7514-EP2316827A1', '7514-EP2316828A1', '7514-EP2316832A1', '7514-EP2316833A1', '7514-EP2316836A1', '7514-EP2380874A2', 'D89660', 'Diethylamine, puriss. p.a., >=99.5% (GC)', '37264-EP2275398A1', '37264-EP2295503A1', '37264-EP2301937A1', '37264-EP2311802A1', '37264-EP2311803A1', '59608-EP2284166A1', '59608-EP2295436A1', '59608-EP2298769A1', '59608-EP2298773A1', '59608-EP2308852A1', 'Diethylamine, purified by redistillation, 99.5%', 'Q414196', 'J-002340', 'J-520311', 'F2190-0302', '5-Oxo-L-prolyl-L-glutaminyl-L-alpha-aspartyl-O-sulfo-L-tyrosyl-L-threonylglycyl-L-tryptophyl-L-methionyl-L-alpha-aspartyl-L-phenylalaninamideN-ethylethanamine (1/1)']
10;N-propylpropan-1-amine;1;C6H15N;101.19;CCCNCCC;8902;222.4;-57.3;;;;-3.7;-3.3;-4.2;-5.9;11;;;;['DIPROPYLAMINE', 'Di-n-propylamine', '142-84-7', '1-Propanamine, N-propyl-', 'n-Dipropylamine', 'N-propylpropan-1-amine', 'N-Propyl-1-propanamine', 'RCRA waste number U110', 'dipropyl amine', 'di(n-propyl)amine', 'UNII-60P318IIRY', 'DIPROPYL-AMINE', 'di-n-propylamin', '60P318IIRY', 'RCRA waste no. U110', 'CCRIS 4805', 'HSDB 2644', 'EINECS 205-565-9', 'UN2383', 'BRN 0505974', 'di-propylamine', 'AI3-24037', 'di-n-propyl amine', 'N,N-Dipropylamine', 'N-propyl propylamine', 'N-propyl-propylamine', 'MFCD00009362', 'Dipropylamine, 99%', 'N,N-Dipropylamine #', 'N,N-di-n-propylamine', 'DSSTox_CID_5185', 'ACMC-209cp5', 'DiPropylamine Reagent Grade', 'EC 205-565-9', 'DSSTox_RID_77699', 'DSSTox_GSID_25185', 'SCHEMBL15445', '(n-C3H7)2NH', 'CHEMBL3185961', 'DTXSID2025185', 'STR03559', 'ZINC1672989', 'Tox21_202085', 'BBL027756', 'STL194269', 'AKOS000118843', 'MCULE-6223802621', 'UN 2383', 'NCGC00249163-01', 'NCGC00259634-01', 'CAS-142-84-7', 'D0930', 'FT-0614098', 'FT-0625300', 'Dipropylamine [UN2383]  [Flammable liquid]', '104486-EP2292597A1', '104486-EP2298761A1', '104486-EP2301627A1', '125304-EP2295424A1', 'Q410621', 'J-007705', 'J-520390', 'F2190-0303']
11;N-prop-2-enylprop-2-en-1-amine;1;C6H11N;97.16;C=CCNCC=C;31279;218.9;-58.8;;;;-4;-4.7;-5.2;-6.1;9.3;;;;"['Diallylamine', '124-02-7', '2-Propen-1-amine, N-2-propenyl-', 'Di-2-propenylamine', 'bis(prop-2-en-1-yl)amine', 'N-prop-2-enylprop-2-en-1-amine', 'UNII-N18EXB6V6P', 'N-2-PROPENYL-2-PROPEN-1-AMINE', 'N-allylprop-2-en-1-amine', 'N18EXB6V6P', '2-Propen-1-amine, N-2-propen-1-yl-', 'DSSTox_CID_4918', 'Amine, diallyl-', 'DSSTox_RID_77581', 'DSSTox_GSID_24918', 'CAS-124-02-7', 'CCRIS 4776', 'HSDB 5471', 'EINECS 204-671-2', 'NSC 20948', 'UN2359', 'BRN 0773718', 'diallyl amine', 'diallyl-amine', 'bis(allyl)amine', 'AI3-15324', 'di-allyl amine', 'N,N-Diallylamine', 'N,N-diallyl amine', 'Diallylamine, 99%', 'N,N-Diallylamine #', 'ACMC-1BVYJ', 'N,N-Di(2-propenyl)amine', '(CH2=CHCH2)2NH', '4-04-00-01060 (Beilstein Handbook Reference)', 'WLN: 1U2M2U1', 'CHEMBL3186706', 'DTXSID1024918', 'AMY25549', 'BCP30054', 'EBD14297', 'NSC20948', 'STR01759', 'ZINC1577263', 'Tox21_201555', 'Tox21_303139', 'MFCD00008642', 'NSC-20948', 'AKOS000119778', 'MCULE-3284076720', 'UN 2359', 'NCGC00249067-01', 'NCGC00257162-01', 'NCGC00259104-01', 'DB-041761', 'D0069', 'Diallylamine [UN2359]  [Flammable liquid]', 'FT-0624608', '99296-EP2301533A1', '2-Propen-1-amine, N-2-propen-1-yl-, homopolymer', 'Di-2-propenylamine; N-2-Propenyl-2-propen-1-amine', 'J-005025', 'J-520225', 'Q1208441', 'F2190-0524', 'Z138181328', '2-Propen-1-amine, N-2-propenyl- pound>>Di-2-propenylamine pound>>bis(prop-2-en-1-yl)amine', '62238-80-6']"
12;N,N-dimethylmethanamine;1;C3H9N;59.11;CN(C)C;1146;219.5;-58.1;;-68.2;-58.7;-3.2;-2.0;-2.6;-3.8;9.8;;17.6;9.8;['trimethylamine', 'N,N-dimethylmethanamine', '75-50-3', 'Methanamine, N,N-dimethyl-', 'N-Trimethylamine', 'Dimethylmethaneamine', 'Trimethylamine solution', '(CH3)3N', 'TRIMETHYL AMINE', 'Trimethylamin', 'Trimethylamine anhydrous', 'trimethyl-amine', 'UNII-LHH7G8O305', 'UN1083', 'UN1297', 'N,N,N-trimethylamine', 'NMe3', 'AI3-15639', 'Trimethylamine, in aqueous solution', 'Trimethylamine solution (30% or less)', 'Methylamine, N,N-dimethyl-', 'trimethylamino', 'LHH7G8O305', 'CHEBI:18139', 'MFCD00008327', 'Trimethylamine, anhydrous [UN1083]  [Flammable gas]', 'FEMA Number 3241', 'Trimethylamine, aqueous solutions not >50% trimethylamine, by mass [UN1297]  [Flammable liquid]', 'Trimethylamine solution, 25 wt. % in H2O', 'FEMA No. 3241', 'CCRIS 6283', 'HSDB 808', 'EINECS 200-875-0', 'tri-methylamine', 'KEN', 'dimethylamino methane', 'tridimethylaminomethane', 'Trimethylamine, anhydrous', 'N,N-dimethyl-Methanamine', 'DSSTox_CID_6238', 'N,N-Dimethylmethanamine #', 'bmse000224', 'EC 200-875-0', 'DSSTox_RID_78071', 'NCIOpen2_007868', 'DSSTox_GSID_26238', 'Dimethylaminomethylidyneradical', 'Trimethylamine, >=99.0%', 'Trimethylamine, >=99.5%', 'Trimethylamine 2.0M in THF', 'Trimethylamine aqueous solution', 'CHEMBL439723', 'GTPL5521', 'DTXSID2026238', 'Trimethylamine 2M in Isopropanol', 'N(CH3)3', 'Trimethylamine solution, 34-36%', 'Trimethylamine, anhydrous, >=99%', 'ZINC8216125', 'Tox21_302355', 'Trimethylamine, 1M solution in THF', 'BDBM50416499', 'NSC101179', 'STL264242', 'AKOS000119986', 'Trimethylamine 2M solution in methanol', 'Trimethylamine solution 20 % in H2O', 'ZINC112948558', 'MCULE-7903544426', 'NSC-101179', 'UN 1083', 'UN 1297', 'CAS-75-50-3', 'NCGC00255170-01', 'Trimethylamine, 45% w/w aqueous solution', 'FT-0660006', 'T0464', 'T2268', 'T2704', 'T2892', 'T2893', 'T3567', 'T3614', 'C00565', '11062-EP2269610A2', '11062-EP2269977A2', '11062-EP2269989A1', '11062-EP2269990A1', '11062-EP2269999A1', '11062-EP2270011A1', '11062-EP2270014A1', '11062-EP2270505A1', '11062-EP2272491A1', '11062-EP2272822A1', '11062-EP2272832A1', '11062-EP2272834A1', '11062-EP2272841A1', '11062-EP2275398A1', '11062-EP2275411A2', '11062-EP2275412A1', '11062-EP2275427A1', '11062-EP2277848A1', '11062-EP2277867A2', '11062-EP2280001A1', '11062-EP2280003A2', '11062-EP2280010A2', '11062-EP2281817A1', '11062-EP2281821A1', '11062-EP2281823A2', '11062-EP2284149A1', '11062-EP2284160A1', '11062-EP2284169A1', '11062-EP2284171A1', '11062-EP2287147A2', '11062-EP2287152A2', '11062-EP2287153A1', '11062-EP2287155A1', '11062-EP2287160A1', '11062-EP2287161A1', '11062-EP2287162A1', '11062-EP2287163A1', '11062-EP2289510A1', '11062-EP2289891A2', '11062-EP2289965A1', '11062-EP2292228A1', '11062-EP2292576A2', '11062-EP2292597A1', '11062-EP2292615A1', '11062-EP2295402A2', '11062-EP2295406A1', '11062-EP2295409A1', '11062-EP2295414A1', '11062-EP2295415A1', '11062-EP2295433A2', '11062-EP2295437A1', '11062-EP2298731A1', '11062-EP2298734A2', '11062-EP2298742A1', '11062-EP2298750A1', '11062-EP2298761A1', '11062-EP2298772A1', '11062-EP2298775A1', '11062-EP2298779A1', '11062-EP2298828A1', '11062-EP2301923A1', '11062-EP2301928A1', '11062-EP2301929A1', '11062-EP2301931A1', '11062-EP2301933A1', '11062-EP2301935A1', '11062-EP2301936A1', '11062-EP2302015A1', '11062-EP2305219A1', '11062-EP2305257A1', '11062-EP2305625A1', '11062-EP2305636A1', '11062-EP2305651A1', '11062-EP2305672A1', '11062-EP2305673A1', '11062-EP2305674A1', '11062-EP2305677A1', '11062-EP2305678A1', '11062-EP2305679A1', '11062-EP2305682A1', '11062-EP2308839A1', '11062-EP2308840A1', '11062-EP2308851A1', '11062-EP2308854A1', '11062-EP2308857A1', '11062-EP2308873A1', '11062-EP2308875A1', '11062-EP2308879A1', '11062-EP2311804A2', '11062-EP2311808A1', '11062-EP2311811A1', '11062-EP2311815A1', '11062-EP2311827A1', '11062-EP2311829A1', '11062-EP2311831A1', '11062-EP2311834A1', '11062-EP2311842A2', '11062-EP2314586A1', '11062-EP2314590A1', '11062-EP2314593A1', '11062-EP2316457A1', '11062-EP2316458A1', '11062-EP2316825A1', '11062-EP2316826A1', '11062-EP2316827A1', '11062-EP2316828A1', '11062-EP2316831A1', '11062-EP2316836A1', '11062-EP2377813A1', '11062-EP2380869A1', '11062-EP2380870A1', '11062-EP2380874A2', '28042-EP2301937A1', '28042-EP2314588A1', '37851-EP2292227A2', '37851-EP2298732A1', '37851-EP2301913A1', '37851-EP2301914A1', '37851-EP2311796A1', '37851-EP2311797A1', '37851-EP2311798A1', '37851-EP2311799A1', '59622-EP2272846A1', '59622-EP2277868A1', '59622-EP2277869A1', '59622-EP2277870A1', '59622-EP2292608A1', '59622-EP2308852A1', 'Trimethylamine solution, 25 wt. % in H2O, FG', 'Trimethylamine solution, 45 wt. % in H2O, FG', '148083-EP2280005A1', '148083-EP2289884A1', 'Q423953', 'Trimethylamine (ca. 8% in Toluene, ca. 1mol/L)', 'Trimethylamine solution, ~45 wt. % in H2O (T)', 'Trimethylamine solution, 25 wt. % in propylene glycol', 'F1908-0091', 'Trimethylamine (~25 wt. per cent solution in methanol)', 'Trimethylamine (ca. 13% in Acetonitrile, ca. 2mol/L)', 'Trimethylamine, anhydrous, cylinder, with 316SS needle valve, 99%', 'Trimethylamine, aqueous solutions not >50% trimethylamine, by mass', 'Hydrogen undecahydrodicarbaundecaborate(1-), compd. with trimethylamine (1:1)', 'Trimethylamine solution, 31-35 wt. % in ethanol, 4.2 M, contains toluene as stabilizer']