Number;IUPAC_name;Charge;Molecular Formula;Molecular Weight [g/mol];Isomeric SMILES;Pubchem CID;GasPhaseAcidity_B2PLYP//DLPNO-CCSD(T) [kcal/mol];GSolv_Ion_Water [kcal/mol];GSolv_Ion_DMSO [kcal/mol];GSolv_Ion_Acetonitrile [kcal/mol];GSolv_Ion_MeOH [kcal/mol];Gsolv_Neutral_Water_exp [kcal/mol];Gsolv_Neutral_DMSO_TZVPD-Fine [kcal/mol];Gsolv_Neutral_Acetonitrile_TZVPD-Fine [kcal/mol];Gsolv_Neutral_MeOH_TZVPD-Fine [kcal/mol];pka_water;pka_DMSO;pka_Acetonitrile;pka_MeOH;Synonyms
39;N-phenylaniline;-1;C12H11N;169.22;C1=CC=C(C=C1)NC2=CC=CC=C2;11487;;;;;;-5.3;-12.1;-11.3;-11.0;22.4;25;;;['Diphenylamine', 'N-Phenylaniline', '122-39-4', 'N-Phenylbenzenamine', 'N,N-DIPHENYLAMINE', 'Anilinobenzene', 'Benzenamine, N-phenyl-', 'Phenylaniline', 'Scaldip', 'N-Phenylbenzeneamine', 'Big Dipper', 'No-Scald', 'Styrenated diphenylamine', 'Benzene, anilino-', 'Deccoscald 282', 'Difenylamin', 'Naugalube 428L', 'Benzene, (phenylamino)-', 'Aniline, N-phenyl-', 'N-Fenylanilin', 'Shield DPA', 'No-Scald DPA 283', 'DIPHENYL AMINE', 'DIPHENYL-AMINE', '(phenylamino)benzene', 'No scald', 'UNII-9N3CBB0BIQ', 'Benzenamine, N-phenyl-, styrenated', 'C.I. 10355', 'Poly(diphenylamine)', 'NSC 215210', 'C6H5-NH-C6H5', 'CHEBI:4640', 'N-Phenylbenzenamine, styrenated', 'Diphenylamine indicator', 'MFCD00003014', '9N3CBB0BIQ', 'DFA', 'Styrene, reaction product with diphenylamine', 'Benzenamine, N-phenyl-, homopolymer', 'Diphenylamine, reaction product with 2,2,4-trimethylpentene', 'DSSTox_CID_1975', 'DSSTox_RID_76436', 'DSSTox_GSID_21975', 'Difenylamin [Czech]', 'Caswell No. 398', 'N-Fenylanilin [Czech]', '25656-57-9', 'CAS-122-39-4', 'CCRIS 4699', 'HSDB 1108', 'DIPHENYLAMINE, ACS', 'EINECS 204-539-4', 'EPA Pesticide Chemical Code 038501', 'CI 10355', 'phenyl aniline', 'Anilino-Benzene', 'AI3-00781', 'n-phenyl-aniline', 'Diphenylamine redox', 'N-(phenyl)aniline', 'n,n-diphenyl amine', 'EINECS 270-485-3', 'N,N-di-phenylamine', 'n-phenyl-benzenamine', 'DIPHENYAMINE', 'Diphenylamine, p.a.', '(phenylamino)-Benzene', 'No scald dpa 283', 'Ph2NH', 'ACMC-20aj4p', 'Diphenylamine, >=98%', 'WLN: RMR', 'Diphenylamine, ACS grade', 'N-Phenylbenzenamine, 9CI', 'SCHEMBL229', 'Epitope ID:115002', 'EC 204-539-4', 'N-PHENYLBENZENENAMINE', 'Oprea1_815288', 'MLS002152913', 'BIDD:ER0338', 'CHEMBL38688', 'QSPL 033', 'SCHEMBL3685153', 'SCHEMBL6255037', 'SCHEMBL7527678', 'DTXSID4021975', 'SCHEMBL10932134', '2-Biphenylyl-N-pyridyl-Acetamide', 'ATTERCOP-CHM AT130117', 'HMS1788N11', 'HMS3034E05', 'LABOTEST-BB LTBB000505', 'ZINC967716', 'EBD25081', 'Tox21_201611', 'Tox21_301026', 'LABOTEST-BB LT03328529', 'NSC215210', 'STK301666', 'Diphenylamine, ACS reagent, >=99%', 'Diphenylamine, ReagentPlus(R), 99%', 'AKOS000119099', 'AS01428', 'MCULE-8347316415', 'NC-0220', 'NSC-215210', 'NCGC00090889-01', 'NCGC00090889-02', 'NCGC00090889-03', 'NCGC00090889-04', 'NCGC00090889-05', 'NCGC00254928-01', 'NCGC00259160-01', 'AC-16417', 'SMR000777939', 'Diphenylamine 10 microg/mL in Cyclohexane', 'D0872', 'D1229', 'Diphenylamine 100 microg/mL in Acetonitrile', 'FT-0625252', 'V0082', 'Diphenylamine, Vetec(TM) reagent grade, 98%', 'Diphenylamine, PESTANAL(R), analytical standard', 'A804887', 'Q412265', 'J-004797', 'J-520383', 'F2190-0411', 'Diphenylamine, puriss. p.a., redox indicator, ACS reagent, reag. Ph. Eur., >=98% (GC)']
40;formonitrile;-1;CHN;27.025;C#N;768;345.5;-75.1;-74.3;;;-3.1;-7.3;-4.0;-4.9;9.2;12.9;;;['hydrogen cyanide', 'hydrocyanic acid', 'Formonitrile', 'Prussic acid', 'Cyanwasserstoff', 'Blausaeure', 'Formic anammonide', '74-90-8', 'Zaclondiscoids', 'Cyclon', 'Evercyn', 'Cyclone B', 'Aero Liquid HCN', 'Agent AC', 'Cyaanwaterstof', 'Cyjanowodor', 'Blauwzuur', 'Acido cianidrico', 'Acide cyanhydrique', 'RCRA waste number P063', 'Blausaeure [German]', 'Carbon hydride nitride (CHN)', 'cyanyl', 'methanenitrile', 'HCN', 'hydridonitridocarbon', '[CHN]', 'UNII-2WTB3V159F', 'UN 1051', 'hydrogen(nitridocarbonate)', 'Zyklon B', '2WTB3V159F', 'CHEMBL183419', 'CHEBI:18407', 'Blausaeure (German)', 'Blauwzuur [Dutch]', 'Cyjanowodor [Polish]', 'Caswell No. 483', 'Cyaanwaterstof [Dutch]', 'Cyanwasserstoff [German]', 'Hydrogen cyanide [ISO]', 'Acido cianidrico [Italian]', 'Acide cyanhydrique [French]', 'AC [Cyanide]', 'HSDB 165', 'Acide cyanhydrique [ISO-French]', 'EINECS 200-821-6', 'NA1613', 'UN1051', 'UN1613', 'UN1614', 'UN3294', 'RCRA waste no. P063', 'EPA Pesticide Chemical Code 045801', 'AI3-31100-X', 'BRN 1718793', 'Zootic acid', 'Nitrilomethane #', 'Prussic acid, anhydrous, stabilized', 'Carbon hydride nitride', 'Hydrocyanic acid, anhydrous, stabilized', 'Hydrogen cyanide, anhydrous, stabilized', 'Prussic acid, unstabilized', 'EC 200-821-6', 'UN 1613 (Salt/Mix)', 'UN 1614 (Salt/Mix)', 'Hydrocyanic acid (prussic), unstabilized [Forbidden]', 'DTXSID9024148', 'BDBM50152968', 'Hydrocyanic acid aqueous solutions, with not >20% hydrocyanic acid', 'Hydrocyanic acid, anhydrous, stabilized, absorbed in a porous inert material', 'Hydrogen cyanide, anhydrous, stabilized, absorbed in a porous inert material', 'Prussic acid, anhydrous, stabilized, absorbed in a porous inert material', 'NA 1051', 'Hydrocyanic acid (prussic), unstabilized', 'Hydrogen cyanide, stabilized with <3% water', 'C01326', 'Q3416481', 'Graphitic carbon nitride, 99%, length: 1 - 10 mum', 'Hydrocyanic acid, aqueous solutions <5% hydrogen cyanide', 'hydridonitridocarbonhydrogen(nitridocarbonate)methanenitrile', 'Hydrogen cyanide, stabilized with <3% water [UN1051]  [Poison]', 'Hydrogen cyanide, solution in alcohol with not >45% hydrogen cyanide', 'Hydrocyanic acid, aqueous solutions <5% hydrogen cyanide [NA1613]  [Poison]', 'Hydrogen cyanide, solution in alcohol with not >45% hydrogen cyanide [UN3294]  [Poison]', 'Hydrogen cyanide, stabilized, with <3% water and absorbed in a porous inert material', '143334-20-7', 'Hydrocyanic acid, aqueous solutions or Hydrogen cyanide, aqueous solutions with not > 20% hydrogen cyanide', 'Hydrocyanic acid, aqueous solutions or Hydrogen cyanide, aqueous solutions with not > 20% hydrogen cyanide [UN1613]  [Poison]', 'Hydrogen cyanide, stabilized, with <3% water and absorbed in a porous inert material [UN1614]  [Poison]']
41;azane;1;H3N;17.031;N;222;195.7;-82.3;-82.5;-90.9;-84.6;-4.3;-2.9;-3.0;-4.5;9.3;10.5;16.5;10.8;"['ammonia', '7664-41-7', 'azane', 'Ammonia gas', 'Spirit of hartshorn', 'Nitro-sil', 'Ammonia, anhydrous', 'Ammoniakgas', 'Ammonia anhydrous', 'Anhydrous ammonia', 'Ammoniak', 'AM-Fol', 'Liquid Ammonia', 'Ammonia solution', 'Ammoniak Kconzentrierter', 'Amoniak [Polish]', 'Ammoniac [French]', 'Ammoniak [German]', 'ammoniac', 'Ammoniaca [Italian]', 'Caswell No. 041', 'Ammonia (conc 20% or greater)', 'CCRIS 2278', 'HSDB 162', 'Ammonia solution, strong', 'NH3', 'UN 2073 (>44% solution)', 'UN1005', 'Aminomethyl Polystyrene Resin', 'azanediyl (triplet)', 'EPA Pesticide Chemical Code 005302', 'UNII-5138Q19F1X', 'R 717', 'UN 1005 (anhydrous gas or >50% solution)', 'UN 2672 (between 12% and 44% solution)', 'Ammonia, 7M in methanol', 'Ammonia anhydrous, 99.98%', 'CHEBI:16134', 'MFCD00011418', '5138Q19F1X', 'Ammonia solution, strong (NF)', 'Ammonia solution, strong [NF]', 'amoniaco', 'Ammoniaca', 'Amoniak', '(Aminomethyl)polystyrene', 'EINECS 231-635-3', 'tertiaeres Amin', 'Aminyl radical', 'ammonia ca', 'primaeres Amin', 'Ammonia inhalant', 'Ammoniacum gummi', 'sekundaeres Amin', 'anyhydrous ammonia', '(Aminomethyl)polystyrene, 100-200 mesh, extent of labeling: ~0.5 mmol/g amine loading', 'NH4', 'UNX', 'Refrigerent R717', 'Strong Ammonia Solution', 'ACMC-1BKZC', 'Ammonia (8CI,9CI)', 'Ammonia water (JP15)', 'Aromatic ammonia vaporole', 'Ammonia, 2M in methanol', 'Dowex(R) 66 free base', 'Ammonia, 0.5M in THF', 'Aromatic Ammonia, Vaporole', 'EC 231-635-3', 'Ammonia solution strong (NF)', 'Ammonia solution strong [usan]', 'INS NO.527', 'N H3', 'ammonium isovalerate 30% in pg', 'CHEMBL1160819', 'DTXSID0023872', 'DTXSID40912315', 'DTXSID80420101', 'INS-527', '[NH3]', 'NH(3)', 'Ammonia solution, 0.4 M in THF', 'Ammonia solution, 4 M in methanol', 'Ammonia solution, 7 N in methanol', 'Ammonia, anhydrous, >=99.98%', 'ACT02989', 'Ammonia solution 2.0 M in ethanol', 'Ammonia solution 2.0 M in methanol', 'Ammonia solution, 0.5 M in dioxane', 'Ammonia solution, 2.0 M in ethanol', 'AKOS015916403', 'Ammonia anhydrous 170g Lecture bottle', 'Ammonia solution, 2.0 M in methanol', 'Ammonia solution 2.0 M in isopropanol', 'MCULE-5646000632', 'Ammonia 0.5M solution in 1,4-Dioxane', 'Ammonia solution, 2.0 M in isopropanol', 'Ammonia (includes anhydrous ammonia and aqueous ammonia from water dissociable ammonium salts and other sources; 10% of total aqueous ammonia is reportable under this listing)', 'Ammonia, anhydrous, liquefied or ammonia solutions, relative density <0.880 at 15 C in water, with >50% ammonia [UN1005] [Nonflammable gas]', 'Ammonia, anhydrous, liquefied or ammonia solutions, relative density <0.880 at 15 C in water, with >50% ammonia [UN1005] [Poison gas, Corrosive]', 'Ammonia, puriss., anhydrous, >=99.9%', 'Ammonia solution 0.25M in tetrahydrofuran', 'Ammonia, puriss., anhydrous, >=99.95%', 'E-527', 'Q4087', 'R-717', 'C00014', 'D02916', 'Dowex(R) Marathon(TM) WBA free base, free base', 'Q4832241', 'Q6004010', 'Q27110025', '(Aminomethyl)polystyrene, 100-200 mesh, extent of labeling: ~2 mmol/g amine loading', '(Aminomethyl)polystyrene, 200-400 mesh, extent of labeling: ~0.6 mmol/g amine loading', '(Aminomethyl)polystyrene, 200-400 mesh, extent of labeling: ~1.5 mmol/g amine loading', '(Aminomethyl)polystyrene, 400-500 mum, extent of labeling: 1-2 mmol/g amine loading', '(Aminomethyl)polystyrene, 100-200 mesh, extent of labeling: 0.5-1.0 mmol/g N loading, 1 % cross-linked', '(Aminomethyl)polystyrene, 100-200 mesh, extent of labeling: 1.0 mmol/g N loading, 1 % cross-linked', '(Aminomethyl)polystyrene, 200-400 mesh, extent of labeling: 1.0-1.5 mmol/g N loading, 1 % cross-linked', '(Aminomethyl)polystyrene, 200-400 mesh, extent of labeling: 1.0-2.0 mmol/g loading, 2 % cross-linked', '(Aminomethyl)polystyrene, 200-400 mesh, extent of labeling: 4.0 mmol/g loading, 2 % cross-linked', '(Aminomethyl)polystyrene, 50-100 mesh, extent of labeling: 2.0 mmol/g loading, 1 % cross-linked', '(Aminomethyl)polystyrene, 70-90 mesh, extent of labeling: 1.0-1.5 mmol/g N loading, 1 % cross-linked', '(Aminomethyl)polystyrene, 70-90 mesh, extent of labeling: 1.5-2.0 mmol/g N loading, 1 % cross-linked', '(Aminomethyl)polystyrene, macroporous, 30-60 mesh, extent of labeling: 1.5-3.0 mmol/g loading', '(Aminomethyl)polystyrene, macroporous, 70-90 mesh, extent of labeling: 1.5-3.0 mmol/g loading', 'Ammonia (includes anhydrous ammonia and aqueous ammonia from water dissociable ammonium salts and other sources 10% of total aqueous ammonia is reportable under this listing)', 'Ammonia, anhydrous, liquefied or ammonia solutions, relative density <0.880 at 15 C in water, with >50% ammonia', 'Ammonia, anhydrous, liquefied or ammonia solutions, relative density <0.880 at 15 C in water, with >50% ammonia [UN1005]  [Nonflammable gas]', 'Ammonia, anhydrous, liquefied or ammonia solutions, relative density <0.880 at 15 C in water, with >50% ammonia [UN1005]  [Poison gas, Corrosive]', 'StratoSpheres(TM) PL-AMS resin, 100-200 mesh, extent of labeling: ~1.0 mmol/g loading, 1 % cross-linked with divinylbenzene', 'StratoSpheres(TM) PL-AMS resin, 100-200 mesh, extent of labeling: 2.0 mmol/g loading, 1 % cross-linked', 'StratoSpheres(TM) PL-AMS resin, 30-40 mesh, extent of labeling: 1.0 mmol/g loading, 1 % cross-linked', 'StratoSpheres(TM) PL-AMS resin, 30-40 mesh, extent of labeling: 2.0 mmol/g loading, 1 % cross-linked', 'StratoSpheres(TM) PL-AMS resin, 50-100 mesh, extent of labeling: 2.0 mmol/g loading, 1 % cross-linked']"
42;hydrazine;1;H4N2;32.046;NN;9321;199.9;-78.4;;-88.9;;-6.3;-4.8;-5.2;-7.8;8.1;;16.6;;['HYDRAZINE', 'Diamine', '302-01-2', 'Diazane', 'Levoxine', 'Hydrazine base', 'Nitrogen hydride', 'Oxytreat 35', 'Hydrazin', 'Hydrazyna', 'Hydrazine, anhydrous', 'Hydrazyna [Polish]', 'hydrazinyl', 'Hydrazines', 'Hydrazine (anhydrous)', 'RCRA waste number U133', 'UNII-27RFH0GB4R', 'hydrazine solution anhydrous', 'H2NNH2', '27RFH0GB4R', 'N2H4', 'CHEBI:15571', '119775-10-9', 'Hydrazine solution', 'HDZ', 'CCRIS 335', 'HSDB 544', 'EINECS 206-114-9', 'UN2029', 'UN3293', 'Hydrazine/Hydrazine sulfate', 'RCRA waste no. U133', 'Amerzine', 'amino nitrogen', 'Zerox', 'Catalyzed hydrazine', 'Scav-Ox II', 'HYDRAZINE (HYDRAZINE SULFATE)', 'Zerox (Salt/Mix)', 'Amerzine (Salt/Mix)', 'Hydrazine-1,2-diium', 'NH2NH2', 'Scav-Ox II (Salt/Mix)', 'Hydrazine, anhydrous, 98%', 'Nitrogen hydride, (N2H4)', 'NH2-NH2', 'UN 2029 (Salt/Mix)', 'UN 2030 (Salt/Mix)', 'Hydrazine (hydrazine sulphate)', 'Catalyzed hydrazine (Salt/Mix)', 'CHEMBL1237174', 'DTXSID3020702', 'Hydrazine solution, 1.0 M in THF', 'Hydrazine, standard solution, N2H4', 'MFCD00011417', 'STL281862', 'AKOS000269060', 'MCULE-8417340168', 'Hydrazine solution, 35 wt. % in H2O', 'Hydrazine, aqueous solution with not >37% hydrazine, by mass [UN3293]  [Poison]', 'Hydrazine solution, 1 M in acetonitrile', 'NCGC00188947-01', 'BP-13613', 'DB-007559', 'H0172', 'H0204', 'H0697', 'C05361', 'Q58447', 'J-017830', 'Q27110398', 'Hydrazine, standard solution , Specpure?, N2H4 100?g/ml', 'Hydrazine, aqueous solution with not >37% hydrazine, by mass', 'Hydrazine, anhydrous or hydrazine aqueous solutions with >64% hydrazine, by mass', 'Hydrazine, anhydrous or hydrazine aqueous solutions with >64% hydrazine, by mass [UN2029]  [Corrosive]', 'HZN']