Number;IUPAC_name;Charge;Molecular Formula;Molecular Weight [g/mol];Isomeric SMILES;Pubchem CID;GasPhaseAcidity_B2PLYP//DLPNO-CCSD(T) [kcal/mol];GSolv_Ion_Water [kcal/mol];GSolv_Ion_DMSO [kcal/mol];GSolv_Ion_Acetonitrile [kcal/mol];GSolv_Ion_MeOH [kcal/mol];Gsolv_Neutral_Water_exp [kcal/mol];Gsolv_Neutral_DMSO_TZVPD-Fine [kcal/mol];Gsolv_Neutral_Acetonitrile_TZVPD-Fine [kcal/mol];Gsolv_Neutral_MeOH_TZVPD-Fine [kcal/mol];pka_water;pka_DMSO;pka_Acetonitrile;pka_MeOH;Synonyms
69;ethane-1,2-diol;-1;C2H6O2;62.07;C(CO)O;174;371.1;-98.3;;;;-9.3;-10.0;-8.0;-9.3;15.4;;;;"['ETHYLENE GLYCOL', 'Ethane-1,2-diol', '1,2-ethanediol', '107-21-1', 'glycol', 'monoethylene glycol', '1,2-Dihydroxyethane', '2-hydroxyethanol', 'Glycol alcohol', 'Ethylene alcohol', 'polyethylene glycol', 'Macrogol', 'Fridex', 'Tescol', 'Ethylene dihydrate', 'Norkool', 'Macrogol 400 BPC', 'Dowtherm SR 1', 'ethanediol', 'Zerex', 'Poly(ethylene glycol)', 'Ucar 17', 'Lutrol-9', 'Polyethylene glycol 200', 'Aethylenglykol', 'Ethylenglycol', '1,2-Ethandiol', '1,2-ethylene glycol', 'ethylen glycol', 'ethylene-glycol', 'Polyethylene glycol 600', '146AR', 'Polyethylene glycol 1000', 'Polyethylene glycol 3350', 'UNII-FC72KVT52F', 'Lutrol 9', 'MFCD00002885', 'NSC 93876', 'Carbowax 300', '1,2-dihydroxy ethane', 'HOCH2CH2OH', 'Union Carbide XL 54 Type I De-icing Fluid', 'M.e.g.', 'PEG', 'Polyethylene Glycol 4000', 'FC72KVT52F', 'DTXSID8020597', 'CHEBI:30742', '1, 2-Ethanediol', 'DSSTox_CID_597', 'H(OCH2CH2)nOH', 'DSSTox_RID_75680', 'DSSTox_GSID_20597', 'Glycol, ethylene-', 'Glycol, polyethylene', 'Glycols, polyethylene', 'Caswell No. 441', 'Aethylenglykol [German]', 'Polyethylene oxide', 'Carbowax 20', 'CAS-107-21-1', 'Polyethylene Glycols', 'Carbowax 400', 'Carbowax 1000', 'CCRIS 3744', 'Dowtherm 4000', 'HSDB 5012', 'Ethylene glycol polymer', 'NCI-C00920', 'PEG 3350', 'EINECS 203-473-3', 'Ethylene glycol homopolymer', 'Polyethylene Glycol 6000', 'EPA Pesticide Chemical Code 042203', '1,2-Ethanediol homopolymer', 'ethyleneglycole', 'Athylenglykol', 'ehtylene glycol', 'etylene glycol', 'AI3-03050', '2-ethanediol', 'Polyaethylenglykol', 'Ilexan E', '4-vinyl cathecol', 'Polyaethylenglykole', 'MEG 100', 'Solbanon (TN)', '1,2-ethane diol', '1,2-ethane-diol', 'ethane-1.2-diol', 'GXT', 'PEG 1000', 'PEG 4000', '1,2-ethyleneglycol', 'ethan-1,2-diol', 'mono-ethylene glycol', 'Macrogol 400', 'Mono Ethylene Glycol', 'Carbowax 1540', '1,2-ethylene-glycol', 'Lutrol E (TN)', 'DuPont Zonyl FSO Fluorinated Surfactants', 'Ethylene glycol-[d6]', 'alpha-Hydro-omega-hydroxypoly(oxyethylene)', 'polyethylene glycol-400', 'Macrogol 400 (TN)', 'Polyethylene oxide (NF)', 'Polyethylene glycol (NF)', 'ACMC-1AS4X', 'Sentry polyox WSR (TN)', 'Ethyleneglycol, ReagentPlus', 'Macrogol 1500 (TN)', 'Macrogol 4000 (TN)', 'Macrogol 6000 (TN)', 'EC 203-473-3', 'Macrogol ointment (JP17)', 'WLN: Q2Q', 'Glycol, polyethylene(300)', 'HO(CH2)2OH', 'NCIOpen2_001979', 'NCIOpen2_002019', 'NCIOpen2_002100', 'Macrogol 400 (JP17)', 'Polyethylene Glycol 300 NF', 'alpha-Hydro-omega-hydroxypoly(oxy-1,2-ethanediyl)', 'Ethylene glycol 5 M solution', 'MLS002454404', 'Polyethylene glycol, diglycidyl bisphenol A polymer', 'BIDD:ER0283', 'FisherFresh&trade; Concentrate', 'Macrogol 1500 (JP17)', 'Macrogol 4000 (JP17)', 'Macrogol 6000 (JP17)', 'CHEMBL457299', 'DTXSID4027862', 'Ethylene glycol, AR, >=99%', 'Ethylene glycol, LR, >=99%', 'Macrogol 20000 (JP17)', 'CHEBI:46793', 'PEG1000', 'Poly(oxy-1,2-ethanediyl), .alpha.-hydro-.omega.-hydroxy-', 'HMS2267F07', 'Poly(ethylene glycol) methyl ether', 'Polyethylene glycol 3350 (USP)', 'Ethylene glycol, p.a., 99.5%', '1,2-ETHANEDIOL  (GLYCOL)', 'AMY22336', 'NSC32853', 'NSC32854', 'NSC57859', 'NSC93876', 'PEG 3600', 'PEG-1000', 'poly (ethylene glycol) methyl ether', 'STR01171', 'ZINC5224354', 'Ethylene glycol, analytical standard', 'Tox21_202038', 'Tox21_300637', 'Ethane-1,2-diol (Ethylene Glycol)', 'Ethylene glycol, anhydrous, 99.8%', 'NSC-32853', 'NSC-32854', 'NSC-57859', 'NSC-93876', 'NSC152324', 'NSC152325', 'NSC155081', 'Polyethylene Glycol 8000, NF FCC', 'STL264188', 'M.W range 3,000-3,700', 'AKOS000119039', 'alpha,omega-hydroxypoly(ethylene oxide)', 'MCULE-6366313128', 'NSC-152324', 'NSC-152325', 'NSC-155081', 'Ethylene glycol, Spectrophotometric grade', 'NCGC00091510-01', 'NCGC00091510-02', 'NCGC00091510-03', 'NCGC00254292-01', 'NCGC00259587-01', 'BP-13454', 'BP-31056', 'M430', ""Oxirane, 2,2'-((1-methylethylidene)bis(4,1-phenyleneoxymethylene))bis-, polymer with alpha-hydro-omega-hydroxypoly(oxy-1,2-ethanediyl)"", 'SMR001262244', 'Dihydrocarveol, (-)-, mixture of isomers', 'ETHYLENE GLYCOL HIGH PURITY GRD 1L', 'Ethylene glycol, ReagentPlus(R), >=99%', 'DuPont Zonyl FSE   Fluorinated Surfactants', 'Residual Solvent Class 2 - Ethylene Glycol', '242-EP2269996A1', '242-EP2272826A1', '242-EP2272846A1', '242-EP2272849A1', '242-EP2275413A1', '242-EP2275420A1', '242-EP2277867A2', '242-EP2280003A2', '242-EP2281810A1', '242-EP2281812A1', '242-EP2284165A1', '242-EP2286812A1', '242-EP2287156A1', '242-EP2289897A1', '242-EP2292597A1', '242-EP2292608A1', '242-EP2295399A2', '242-EP2295434A2', '242-EP2295438A1', '242-EP2298076A1', '242-EP2298077A1', '242-EP2298750A1', '242-EP2298770A1', '242-EP2301353A1', '242-EP2305031A1', '242-EP2305034A1', '242-EP2305035A1', '242-EP2305663A1', '242-EP2305673A1', '242-EP2305683A1', '242-EP2308510A1', '242-EP2308857A1', '242-EP2308866A1', '242-EP2308877A1', '242-EP2311804A2', '242-EP2311807A1', '242-EP2311834A1', '242-EP2311839A1', '242-EP2314574A1', '242-EP2314589A1', '242-EP2316837A1', '242-EP2371797A1', '242-EP2371798A1', '242-EP2371800A1', '242-EP2371804A1', '242-EP2371809A1', '242-EP2374895A1', '242-EP2377845A1', '242-EP2380873A1', '378-EP2269977A2', '378-EP2270010A1', '378-EP2270017A1', '378-EP2270101A1', '378-EP2270113A1', '378-EP2272813A2', '378-EP2272817A1', '378-EP2272832A1', '378-EP2272849A1', '378-EP2272935A1', '378-EP2272972A1', '378-EP2272973A1', '378-EP2274983A1', '378-EP2275395A2', '378-EP2275404A1', '378-EP2275417A2', '378-EP2275425A1', '378-EP2275469A1', '378-EP2277507A1', '378-EP2277622A1', '378-EP2277858A1', '378-EP2277866A1', '378-EP2277867A2', '378-EP2277872A1', '378-EP2277875A2', '378-EP2280003A2', '378-EP2281563A1', '378-EP2281810A1', '378-EP2281818A1', '378-EP2281821A1', '378-EP2281824A1', '378-EP2284157A1', '378-EP2284159A1', '378-EP2284162A2', '378-EP2284163A2', '378-EP2284165A1', '378-EP2284169A1', '378-EP2286795A1', '378-EP2286811A1', '378-EP2287161A1', '378-EP2287162A1', '378-EP2287940A1', '378-EP2289965A1', '378-EP2292592A1', '378-EP2292597A1', '378-EP2292606A1', '378-EP2292621A1', '378-EP2295055A2', '378-EP2295399A2', '378-EP2295416A2', '378-EP2295438A1', '378-EP2295439A1', '378-EP2298735A1', '378-EP2298743A1', '378-EP2298747A1', '378-EP2298748A2', '378-EP2298760A1', '378-EP2298767A1', '378-EP2298768A1', '378-EP2298770A1', '378-EP2298772A1', '378-EP2298778A1', '378-EP2298828A1', '378-EP2301924A1', '378-EP2301933A1', '378-EP2301941A1', '378-EP2301983A1', '378-EP2305625A1', '378-EP2305627A1', '378-EP2305642A2', '378-EP2305651A1', '378-EP2305658A1', '378-EP2305667A2', '378-EP2305808A1', '378-EP2308839A1', '378-EP2308843A1', '378-EP2308854A1', '378-EP2308857A1', '378-EP2308858A1', '378-EP2308861A1', '378-EP2308865A1', '378-EP2308926A1', '378-EP2309564A1', '378-EP2311453A1', '378-EP2311815A1', '378-EP2311816A1', '378-EP2311817A1', '378-EP2311818A1', '378-EP2311827A1', '378-EP2314558A1', '378-EP2314576A1', '378-EP2314577A1', '378-EP2314587A1', '378-EP2315303A1', '378-EP2316831A1', '378-EP2371799A1', '378-EP2371809A1', '378-EP2371811A2', '378-EP2372017A1', '378-EP2374783A1', '378-EP2374786A1', '378-EP2374790A1', '378-EP2374895A1', '378-EP2377841A1', '378-EP2380873A1', 'E0105', 'Ethylene glycol 1000 microg/mL in Methanol', 'Ethylene glycol, puriss., >=99.5% (GC)', 'FT-0626292', 'FT-0692978', '1,2-Ethane-1,1,2,2-d4-diol-d2(9ci)', 'Ethylene glycol, BioUltra, >=99.5% (GC)', 'Ethylene glycol, SAJ first grade, >=99.0%', 'C01380', 'D03370', 'D06418', 'D06419', 'D06420', 'D06421', 'D06422', 'D06423', 'Ethylene glycol, JIS special grade, >=99.5%', '27283-EP2270007A1', '27283-EP2270505A1', '27283-EP2272817A1', '27283-EP2272822A1', '27283-EP2279750A1', '27283-EP2280000A1', '27283-EP2281823A2', '27283-EP2284160A1', '27283-EP2284169A1', '27283-EP2287160A1', '27283-EP2287161A1', '27283-EP2287162A1', '27283-EP2292612A2', '27283-EP2305673A1', '27283-EP2308510A1', '27283-EP2308562A2', '27283-EP2308877A1', '27283-EP2311832A1', '27283-EP2311833A1', '27283-EP2311834A1', '27283-EP2314575A1', '27283-EP2371811A2', '27283-EP2374790A1', '27283-EP2377849A2', '89779-EP2289483A1', '89779-EP2295422A2', '89779-EP2305033A1', 'Ethylene glycol, anhydrous, ZerO2(TM), 99.8%', 'Ethylene glycol, Vetec(TM) reagent grade, 98%', 'A851234', 'Ethylene glycol, spectrophotometric grade, >=99%', 'Q194207', 'J-001731', 'F0001-0142', '004143F9-240E-472F-9D5A-B1B13BBA2A18', 'Ethylene glycol, United States Pharmacopeia (USP) Reference Standard', 'Ethylene glycol, Pharmaceutical Secondary Standard; Certified Reference Material', 'Ethylene glycol solution, NMR reference standard, 80% in DMSO-d6 (99.9 atom % D), NMR tube size 3 mm x 8 in.', 'Ethylene glycol solution, NMR reference standard, 80% in DMSO-d6 (99.9 atom % D), NMR tube size 5 mm x 8 in.', 'ethylene glycol;1,2-ethanediol;ethane-1,2-diol;glycolethylene glycol;ethanediol;ethylene glycol 1,2-ethanediol ethane-1,2-diol glycolethylene glycol ethanediol', 'Residual Solvent Class 2 - Ethylene Glycol, United States Pharmacopeia (USP) Reference Standard']"
70;2-methoxyphenol;-1;C7H8O2;124.14;COC1=CC=CC=C1O;460;343.7;;;;-70.9;;-8.9;-8.6;-8.0;;;;14.5;"['guaiacol', '2-Methoxyphenol', '90-05-1', 'o-Methoxyphenol', '2-Hydroxyanisole', 'Phenol, 2-methoxy-', 'Pyrocatechol monomethyl ether', 'Methylcatechol', 'Guaiastil', 'Anastil', 'Guaicol', '1-Hydroxy-2-methoxybenzene', 'Pyroguaiac acid', 'o-Guaiacol', 'o-Hydroxyanisole', 'Guaicolina', 'Guajol', 'Guasol', 'Phenol, o-methoxy-', 'O-Methyl catechol', 'CREOSOTE, WOOD', 'Catechol monomethyl ether', 'Methoxyphenol', 'Guajakol', '8021-39-4', '2-Methoxy-Phenol', 'Hydroxyanisole', 'FEMA No. 2532', 'Methylcatachol', 'Creodon', 'ortho-Guaiacol', 'UNII-6JKA7MAH9C', '2-methoxy phenol', 'NSC 3815', 'MFCD00002185', 'Guaiacol (JAN)', 'Creodon (TN)', '6JKA7MAH9C', 'Guaiacol (2-Methoxyphenol)', 'CHEMBL13766', 'CHEBI:28591', 'Phenol, 2-methoxy-, homopolymer', 'Wood creosote', 'NSC-3815', 'NCGC00090827-02', 'NCGC00090827-04', 'Guajacol', 'DSSTox_CID_3113', 'Phenol, methoxy-', 'DSSTox_RID_76880', 'Guajakol [Czech]', 'DSSTox_GSID_23113', 'Creosote, beechwood', 'Guaiacol (natural)', 'Pyrocatechol methyl ester', 'CAS-90-05-1', '26247-00-7', 'CCRIS 2943', 'Guaiacol [JAN:NF]', 'HSDB 4241', 'SR-01000838056', 'EINECS 201-964-7', 'guiacol', 'Creasote', 'methoxy phenol', '6-methoxyphenol', 'hydroxyl anisole', 'AI3-05615', 'Nat.Guaiacol', 'O-methylcatechol', 'o-Guiacol', 'o--methoxyphenol', 'orthomethoxyphenol', 'o-methoxy-Phenol', '2-methoxyphenol;', 'ortho-methoxyphenol', 'Guaiacol,(S)', 'JZ3', '2-(methyloxy)phenol', '2-methoxyl-4-vinylphenol', 'Catechol mono methyl ether', 'bmse000436', 'bmse010027', '2-methoxyphenol (guaiacol)', 'EC 201-964-7', 'Guaiacol, puriss., 99%', 'WLN: QR BO1', 'DSSTox_RID_77552', '1- hydroxy-2-methoxybenzene', '3-methoxy-4-hydroxy benzene', 'DSSTox_GSID_24853', 'SCHEMBL21626', 'ghl.PD_Mitscher_leg0.900', 'guaiacol (liquid) extra pure', 'Guaiacol, oxidation indicator', '9009-62-5', 'MLS001055375', 'DTXSID0023113', 'NSC3815', 'Guaiacol, natural, >=99%, FG', 'HMS2089D18', 'HMS2233P04', 'HMS3372N11', 'HMS3715E11', 'Pharmakon1600-01506165', 'a hydroxlyated aryl lignin fragment', 'ACMC-209784', 'BCP27082', 'CS-D1347', 'HY-N1380', 'STR03604', 'Tox21_111031', 'Tox21_201136', 'Tox21_202990', 'Tox21_400004', 'BDBM50240369', 'NSC760376', 's3872', 'STL281868', 'ZINC13512224', 'AKOS000118831', 'CCG-214035', 'DB11359', 'EBD2205193', 'MCULE-5627336368', 'NSC-760376', 'PS-3252', 'Guaiacol, SAJ first grade, >=98.0%', 'NCGC00090827-01', 'NCGC00090827-03', 'NCGC00090827-05', 'NCGC00090827-06', 'NCGC00090827-07', 'NCGC00258688-01', 'NCGC00260535-01', 'AC-34997', 'Guaiacol, Vetec(TM) reagent grade, 98%', 'SMR000059155', 'SY048708', 'CAS-8021-39-4', 'DB-024854', 'FT-0626815', 'FT-0671312', 'M0121', '7519-EP2292227A2', '7519-EP2295426A1', '7519-EP2295427A1', '7519-EP2305636A1', '7519-EP2305683A1', '7519-EP2308857A1', '7519-EP2308861A1', '7519-EP2311821A1', '7519-EP2311839A1', '7519-EP2314584A1', '7519-EP2314589A1', '7519-EP2316470A2', '7519-EP2316832A1', '7519-EP2316833A1', '7519-EP2316837A1', 'C01502', 'D00117', '2-Methoxyphenol;o-Methoxyphenol;2-Hydroxyanisole', 'AB00876226-06', 'AB00876226_07', '196981-EP2269977A2', '196981-EP2371803A1', '196981-EP2377843A1', 'A843426', 'Q412403', 'Q-100002', 'SR-01000838056-2', 'SR-01000838056-3', 'F2173-0425', 'Guaiacol, European Pharmacopoeia (EP) Reference Standard', 'UNII-3JYG22FD73 component LHGVFZTZFXWLCP-UHFFFAOYSA-N', 'Guaiacol, United States Pharmacopeia (USP) Reference Standard', 'Guaiacol, Pharmaceutical Secondary Standard; Certified Reference Material']"
71;benzene-1,3-diol;-1;C6H6O2;110.11;C1=CC(=CC(=C1)O)O;5054;340.9;-78.5;;;;-11.4;-17.6;-13.9;-14.6;9.3;;;;"['resorcinol', '108-46-3', 'benzene-1,3-diol', '1,3-Benzenediol', 'Resorcin', '1,3-Dihydroxybenzene', 'm-Hydroquinone', 'm-Hydroxyphenol', '3-Hydroxyphenol', 'm-Dihydroxybenzene', 'Resorcine', 'm-Dioxybenzene', 'm-Benzenediol', 'Dihydroxybenzol', 'Resorzin', 'Developer O', 'Developer R', 'Developer RS', 'Fouramine RS', 'Fourrine EW', 'Pelagol RS', 'Pelagol Grey RS', 'Resorcinolum', 'Fourrine 79', 'Nako TGG', 'Durafur developer G', 'Phenol, m-hydroxy-', 'C.I. Developer 4', 'Benzene, m-dihydroxy-', 'C.I. Oxidation Base 31', 'Rcra waste number U201', 'Acnomel', 'Benzene, 1,3-dihydroxy-', 'Rezamid', 'Sulforcin', '3-Hydroxycyclohexadien-1-one', 'FEMA No. 3589', 'UNII-YUL4LO94HK', 'NCI-C05970', 'RCRA waste no. U201', 'NSC 1571', 'C.I. 76505', '.alpha.-Resorcinol', 'Resorcin (JAN)', 'Resorcin (TN)', 'Resorcinol (USP)', 'Resorcinol [USP]', 'YUL4LO94HK', 'CHEMBL24147', 'CHEBI:27810', 'Resorcinol [UN2876]  [Poison]', 'MFCD00002269', 'NCGC00091501-01', 'Resorcino', 'BENZENE,1,3-DIHYDROXY   RESORCINOL', 'DSSTox_CID_1238', 'DSSTox_RID_76030', 'DSSTox_GSID_21238', 'RCO', 'Caswell No. 723', 'Rezorsine', 'Resorcinol (1,3-Dihydroxybenzene)', 'Rodol RS', 'CAS-108-46-3', '1,3-Benzenediol, homopolymer', 'CCRIS 4052', 'HSDB 722', 'Resorcinol, homopolymer', 'EINECS 203-585-2', 'UN2876', 'EPA Pesticide Chemical Code 071401', 'BRN 0906905', 'Remazol', 'AI3-03996', 'm-hydroxy-phenol', '3-hydroxy-phenol', 'Resorcinol, ACS', '3aqt', '3-Hydroxy phenol', 'Resorcinol, 8CI', 'benzen-1,3-diol', 'Resorcinol, Reagent', '1,3-benzene diol', 'Resorcine, technical', '1,3-dihyroxybenzene', '1,3-Dihydroxybenzol', 'Acnomel (Salt/Mix)', 'Eskamel (Salt/Mix)', 'Rezamid (Salt/Mix)', 'phenol derivative, 3', 'Benzene,3-dihydroxy-', 'Sulforcin (Salt/Mix)', '1,3-dihydroxy-benzene', 'Spectrum_000173', 'M-Dihydroxybenzene,(S)', 'Spectrum2_001310', 'Spectrum3_000895', 'Spectrum4_000990', 'Spectrum5_001152', 'ACMC-1BUC4', 'WLN: QR CQ', 'bmse000415', 'EC 203-585-2', '1,3-Dihydroxybenzene, XII', 'NCIOpen2_003867', 'SCHEMBL15515', 'KBioGR_001399', 'KBioSS_000653', 'Resorcinol, >=98%, FG', 'Resorcinol, Flake, Technical', 'Resorcinol, LR, >=99%', '4-06-00-05658 (Beilstein Handbook Reference)', 'BIDD:ER0285', 'DivK1c_000041', 'SPECTRUM1500527', 'SPBio_001379', 'Resorcinol, BioXtra, >=99%', 'ZINC2028', 'DTXSID2021238', 'BDBM26189', 'FEMA 3589', 'HMS500C03', 'KBio1_000041', 'KBio2_000653', 'KBio2_003221', 'KBio2_005789', 'KBio3_001810', 'Resorcinol, reagent grade, 98%', 'NSC1571', '4e49', 'NINDS_000041', 'HMS1920P06', 'HMS2092G07', 'Pharmakon1600-01500527', '1,3-Dihydroxybenzene (Resorcinol)', 'HY-B0907', 'NSC-1571', 'Resorcinol, ReagentPlus(R), 99%', 'Tox21_111140', 'Tox21_202417', 'Tox21_300140', 'CCG-39248', 'NSC757310', 'Resorcinol 10 microg/mL in Methanol', 'Resorcinol, Crystalline Powder, USP', 'STL185604', 'AKOS000119813', 'Resorcinol, ACS reagent, >=99.0%', 'Tox21_111140_1', 'DB11085', 'MCULE-7018276061', 'NSC-757310', 'UN 2876', 'IDI1_000041', 'NCGC00091501-02', 'NCGC00091501-03', 'NCGC00091501-04', 'NCGC00091501-05', 'NCGC00091501-06', 'NCGC00253918-01', 'NCGC00259966-01', 'Resorcinol, p.a., 99.0-100.5%', 'Resorcinol, tested according to Ph.Eur.', 'AC-14363', 'BP-21158', 'LS-13122', 'Resorcinol, SAJ first grade, >=98.0%', 'SBI-0051505.P003', 'Resorcinol, JIS special grade, >=99.0%', 'FT-0606668', 'FT-0674352', 'FT-0674353', 'R0008', 'S4579', '1,3-BENZENEDIOL; 1,3-DIHYDROXYBENZENE', '3252-EP2270101A1', '3252-EP2280005A1', '3252-EP2289884A1', '3252-EP2298312A1', '3252-EP2311806A2', '3252-EP2314579A1', '6393-EP2289483A1', '6393-EP2371806A1', '6393-EP2372017A1', 'C01751', 'D00133', 'AB00052085_03', 'A801880', 'Q408865', 'SR-05000002092', 'Q-201666', 'SR-05000002092-1', 'BRD-K74190368-001-02-7', 'F1908-0097', 'Resorcinol, certified reference material, TraceCERT(R)', 'Z955123646', 'Resorcinol, European Pharmacopoeia (EP) Reference Standard', 'Resorcinol, United States Pharmacopeia (USP) Reference Standard', 'Hymecromone impurity A, European Pharmacopoeia (EP) Reference Standard', 'Resorcinol, Pharmaceutical Secondary Standard; Certified Reference Material', 'Resorcinol, meets analytical specification of Ph.??Eur., BP, 98.5-100.5% (calc. to the dried substance)']"