Number;IUPAC_name;Charge;Molecular Formula;Molecular Weight [g/mol];Isomeric SMILES;Pubchem CID;GasPhaseAcidity_B2PLYP//DLPNO-CCSD(T) [kcal/mol];GSolv_Ion_Water [kcal/mol];GSolv_Ion_DMSO [kcal/mol];GSolv_Ion_Acetonitrile [kcal/mol];GSolv_Ion_MeOH [kcal/mol];Gsolv_Neutral_Water_exp [kcal/mol];Gsolv_Neutral_DMSO_TZVPD-Fine [kcal/mol];Gsolv_Neutral_Acetonitrile_TZVPD-Fine [kcal/mol];Gsolv_Neutral_MeOH_TZVPD-Fine [kcal/mol];pka_water;pka_DMSO;pka_Acetonitrile;pka_MeOH;Synonyms
142;2H-triazole;-1;C2H3N3;69.07;C1=NNN=C1;67516;339.8;;-70.4;;;;-10.6;-8.0;-9.0;;13.9;;;['1H-1,2,3-Triazole', '288-36-8', '1,2,3-Triazole', '2H-1,2,3-triazole', '1,2,3-1H-Triazole', '2H-triazole', 'Osotriazole', '288-35-7', 'triazol', '1,2,3-triazol', 'V-triazole', 'MFCD00014490', 'Triazacyclopentadiene', '[1,2,3]triazole', '1H-[1,2,3]triazole', '1~{H}-1,2,3-triazole', '27070-49-1', 'CHEBI:35565', '1H-(1,2,3)-triazole', '1H-[1,2,3]-triazole', 'Triazoles', '1H-1,2,3-triazol', 'racemic triazole', '2,3-Diazapyrrole', 'HUH', '1,2,3 triazole', '1h1,2,3-triazole', 'ACMC-1CMBH', '1H-1,2,3 triazole', '1-H-1,2,3-triazole', '2H-[1,2,3]triazole', '2h-1, 2, 3-triazole', '2H-(1,2,3)-triazole', '1-H-1, 2, 3-triazole', 'CHEMBL2148102', 'CHEBI:35566', 'DTXSID30870495', '1H-1,2,3-Triazole, 97%', 'ACT01829', 'BCP18903', 'CS-B1285', 'STR09959', 'ZINC4807252', 'BBL103173', 'MFCD00962232', 'STL556983', 'AKOS005207098', 'AB01140', 'MCULE-9027372824', 'PS-9378', '2-(ETHOXYCARBONYL)ISONICOTINICACID', 'SY005819', 'AB0008338', 'DB-005092', '258-EP0930075A1', '258-EP2269978A2', '258-EP2269985A2', '258-EP2269987A1', '258-EP2269990A1', '258-EP2269991A2', '258-EP2269992A1', '258-EP2270002A1', '258-EP2270010A1', '258-EP2270113A1', '258-EP2272509A1', '258-EP2272517A1', '258-EP2272813A2', '258-EP2272827A1', '258-EP2272828A1', '258-EP2272848A1', '258-EP2272849A1', '258-EP2272935A1', '258-EP2275395A2', '258-EP2275401A1', '258-EP2275409A1', '258-EP2275411A2', '258-EP2276085A1', '258-EP2277858A1', '258-EP2280000A1', '258-EP2281563A1', '258-EP2281818A1', '258-EP2281819A1', '258-EP2284150A2', '258-EP2284151A2', '258-EP2284152A2', '258-EP2284153A2', '258-EP2284155A2', '258-EP2284156A2', '258-EP2284164A2', '258-EP2284920A1', '258-EP2287140A2', '258-EP2287148A2', '258-EP2287150A2', '258-EP2289871A1', '258-EP2289877A1', '258-EP2289883A1', '258-EP2289890A1', '258-EP2292586A2', '258-EP2292590A2', '258-EP2292593A2', '258-EP2292601A1', '258-EP2292602A1', '258-EP2292603A1', '258-EP2292604A2', '258-EP2292609A1', '258-EP2292611A1', '258-EP2292618A1', '258-EP2292619A1', '258-EP2292621A1', '258-EP2292630A1', '258-EP2293650A1', '258-EP2295406A1', '258-EP2295411A1', '258-EP2295416A2', '258-EP2295419A2', '258-EP2295421A1', '258-EP2295426A1', '258-EP2295427A1', '258-EP2295432A1', '258-EP2295433A2', '258-EP2298731A1', '258-EP2298732A1', '258-EP2298737A1', '258-EP2298739A1', '258-EP2298740A1', '258-EP2298741A1', '258-EP2298747A1', '258-EP2298748A2', '258-EP2298766A1', '258-EP2298770A1', '258-EP2298771A2', '258-EP2298772A1', '258-EP2298774A1', '258-EP2298778A1', '258-EP2298828A1', '258-EP2300443A1', '258-EP2301534A1', '258-EP2301912A2', '258-EP2301913A1', '258-EP2301914A1', '258-EP2301916A2', '258-EP2301918A1', '258-EP2301920A1', '258-EP2301921A1', '258-EP2301923A1', '258-EP2301926A1', '258-EP2301932A1', '258-EP2301983A1', '258-EP2302003A1', '258-EP2305250A1', '258-EP2305627A1', '258-EP2305637A2', '258-EP2305648A1', '258-EP2305651A1', '258-EP2305659A1', '258-EP2305662A1', '258-EP2305682A1', '258-EP2305688A1', '258-EP2308510A1', '258-EP2308562A2', '258-EP2308812A2', '258-EP2308832A1', '258-EP2308839A1', '258-EP2308843A1', '258-EP2308848A1', '258-EP2308852A1', '258-EP2308854A1', '258-EP2308863A1', '258-EP2308867A2', '258-EP2308870A2', '258-EP2308874A1', '258-EP2308879A1', '258-EP2308880A1', '258-EP2309584A1', '258-EP2311451A1', '258-EP2311796A1', '258-EP2311797A1', '258-EP2311798A1', '258-EP2311799A1', '258-EP2311811A1', '258-EP2311815A1', '258-EP2311818A1', '258-EP2311825A1', '258-EP2311830A1', '258-EP2314558A1', '258-EP2314575A1', '258-EP2315303A1', '258-EP2315502A1', '258-EP2316450A1', '258-EP2316452A1', '258-EP2316459A1', '258-EP2316832A1', '258-EP2316833A1', '258-EP2316905A1', '258-EP2316906A2', '258-EP2371810A1', '258-EP2371811A2', '258-EP2371812A1', '258-EP2371831A1', '258-EP2372804A1', '258-EP2377847A1', '258-EP2378585A1', 'AM20090377', 'FT-0601191', 'FT-0774760', 'T1880', 'EN300-27201', '88T368', 'A25412', 'D70752', '85481-EP2301536A1', '85481-EP2305657A2', '85483-EP2269993A1', '85483-EP2305657A2', '115172-EP2295416A2', '115172-EP2298748A2', '201180-EP2270006A1', 'A818904', 'Q161297', 'J-509548', 'F1905-7135', 'Z1198386795']
143;1H-1,2,4-triazole;-1;C2H3N3;69.07;C1=NC=NN1;9257;332.0;;-66.6;;;;-15.8;-13.8;-15.8;;14.8;;;['1H-1,2,4-Triazole', '1,2,4-TRIAZOLE', '288-88-0', '4H-1,2,4-triazole', 'Pyrrodiazole', 's-Triazole', '1,2,4-1H-Triazole', 'MFCD00005228', 'UNII-10MS0Y1RDI', '63598-71-0', 'NSC 83128', 'DTXSID6027131', '1,2,4-triazol', 'Peptone, bacteriological', '1H-[1,2,4]triazole', '10MS0Y1RDI', 'CHEBI:46077', '(1,2,4)-triazole', '[1,2,4]-triazole', '1,2,4 triazole', '1H-1,2,4-triazol', '4H-1,2,4-Triazole (VAN)', 'EINECS 206-022-9', 'AI3-51031', 'HSDB 7860', '1,4-Triazole', '1,2,4triazole', '1,3,4-triazole', '1H-1,4-Triazole', '4H-1,4-Triazole', '[1,2,4]triazole', '1,2, 4-triazole', '1,2,4,-triazole', '[1,2,4]triazol', 'ACMC-1BLVK', '[1.2.4]-triazole', '1, 2, 4 triazole', '[1,2,4]-triazol', '1,2,4-1h triazole', 'DSSTox_CID_7131', 'EC 206-022-9', '4H-[1,2,4]Triazole', 'DSSTox_RID_78318', 'DSSTox_GSID_27131', '1H-[1,2,4]-triazole', 'CHEMBL15571', '1,2,4-Triazole, 98%', 'NIOSH/XZ3807000', 'CHEBI:35550', 'AMY40414', 'BCP20885', 'CS-D1150', 'NSC83128', 'ZINC5943507', 'Tox21_300113', 'CGA-71019', 'MFCD01941334', 'NSC-83128', 'STK366100', '1,2,4-Triazole, analytical standard', 'AKOS000120326', 'AKOS000269054', 'DB03594', 'MCULE-3522189420', 'PS-9377', 'NCGC00247903-01', 'NCGC00254087-01', '736917-78-5', 'BP-12667', 'CAS-288-88-0', 'SY001414', 'DB-002017', 'BB 0267986', 'FT-0607865', 'T0340', 'XZ38070000', '88T880', 'E76126', 'T-6200', '85482-EP2269993A1', '85482-EP2305657A2', '85482-EP2374791A1', '95526-EP2274983A1', '95526-EP2305672A1', '1,2,4-Triazole, Vetec(TM) reagent grade, 98%', 'A819652', 'Q161300', 'F1918-0085', 'Z1245636363']
144;2,4,6-trimethylbenzoic acid;-1;C10H12O2;164.2;CC1=CC(=C(C(=C1)C)C(=O)O)C;10194;;;;;;;-12.9;-11.5;-11.9;;;20.6;;['2,4,6-TRIMETHYLBENZOIC ACID', '480-63-7', 'Mesitoic acid', 'Mesitylenecarboxylic acid', 'Benzoic acid, 2,4,6-trimethyl-', 'beta-Isodurylic acid', '.beta.-Isodurylic acid', 'Mesitylene carboxylic acid', '2-Mesitylenecarboxylic acid', 'UNII-4PU2HG6787', '2,4,6-trimethyl-benzoic acid', 'MFCD00002481', 'CHEBI:64830', '4PU2HG6787', '2,6-Trimethylbenzoic acid', 'Benzoic acid,4,6-trimethyl-', 'NSC 1119', 'EINECS 207-553-9', '2,4,6-Trimethylbenzoicacid', 'BRN 1866187', 'ACMC-1CT01', 'DSSTox_CID_28175', 'DSSTox_RID_82735', 'DSSTox_GSID_48200', 'SCHEMBL21870', '4-09-00-01854 (Beilstein Handbook Reference)', 'CHEMBL3185447', 'DTXSID6048200', 'NSC1119', '2, 4, 6-trimethyl benzoic acid', 'ZINC159788', 'EBD26642', 'NSC-1119', 'Tox21_303453', 'AC1492', 'NSC407983', '2,4,6-Trimethylbenzoic acid, 99%', 'AKOS000120671', 'CS-W007903', 'MCULE-8721131371', 'NSC-407983', 'NCGC00257417-01', 'NCGC00334079-01', 'AC-12366', 'AS-10833', 'CAS-480-63-7', 'SY013746', 'DB-030784', 'FT-0609890', 'T1421', 'AB00375791-03', 'AB-131/40171157', 'W-106058', 'Q25385023', 'F1905-7180']
145;2,4-dinitrophenol;-1;C6H4N2O5;184.11;C1=CC(=C(C=C1[N+](=O)[O-])[N+](=O)[O-])O;1493;;;;;;;-12.5;-11.7;-10.7;;5.8;16.8;7.8;"['2,4-dinitrophenol', '51-28-5', 'Phenol, 2,4-dinitro-', 'Aldifen', 'Solfo Black B', 'Tertrosulphur PBR', 'Solfo Black G', 'Sulphur Black 1', '1-Hydroxy-2,4-dinitrobenzene', '2,4-Dnp', 'Nitro kleenup', 'DINITROPHENOL', 'Fenoxyl carbon N', 'Chemox PE', 'Solfo Black BB', 'Solfo Black SB', 'Dinitrofenolo', 'alpha-Dinitrophenol', 'Dinofan', 'Tertrosulphur Black PB', 'Solfo Black 2B Supra', '2,4-Dinitrofenol', 'Maroxol-50', 'RCRA waste number P048', 'NSC 1532', '.alpha.-Dinitrophenol', 'EK 102', 'X 32', 'UNII-Q13SKS21MN', '1326-82-5', '2,4-dinitro-phenol', 'Tertrosulfur pbr', 'CHEBI:42017', 'MFCD00007115', 'Phenol, .alpha.-dinitro-', 'Q13SKS21MN', 'NSC-1532', '2,4-dinitrophenol (h2o w/w 18% max)', 'DSSTox_CID_523', 'Osmoplastic-R', 'Osmotox-Plus', 'Tertrosulfur black pb', 'DSSTox_RID_75640', 'DSSTox_GSID_20523', 'Nitrophen (VAN)', 'DNF', 'Nitrophene (VAN)', '2,4-Dinitrophenol (Wetted with up to 20per cent water)', 'Camello mosquito coils', 'Caswell No. 392', 'Dinitrofenolo [Italian]', 'Phenol, alpha-dinitro-', 'CAS-51-28-5', '2,4-Dinitrofenol [Dutch]', ""1'alpha-2,4-Dinitrophenol"", 'Cobra salts (Impregna salts)', 'Shirakiku brand mosquito coils', 'CCRIS 3102', 'HSDB 529', 'EINECS 200-087-7', 'RCRA waste no. P048', 'EPA Pesticide Chemical Code 037509', 'AI3-01535', 'Spectrum_001934', 'SpecPlus_000938', 'Spectrum2_000673', 'Spectrum3_001694', 'Spectrum4_000913', 'Spectrum5_001670', 'WLN: WNR BQ ENW', 'Epitope ID:112424', 'EC 200-087-7', 'DINITROPHENOL, WETTED', 'SCHEMBL77643', 'BSPBio_003248', 'KBioGR_001406', 'KBioSS_002480', 'SPECTRUM330008', 'MLS001066358', 'BIDD:ER0505', 'DivK1c_007034', 'SPBio_000765', 'CHEMBL273386', 'SR-1C5', 'DTXSID0020523', 'SCHEMBL13973810', 'KBio1_001978', 'KBio2_002473', 'KBio2_005041', 'KBio2_007609', 'KBio3_002468', 'NSC1532', 'HMS1923K21', 'HMS2233H07', 'HMS3372P06', 'HMS3867N13', 'Tox21_201462', 'Tox21_300030', 'BBL023448', 'CCG-39730', 'NSC791780', 'STK397797', 'ZINC12358776', 'AKOS000118988', 'AKOS015912556', 'DB04528', 'MCULE-6678680789', 'NSC-791780', 'NCGC00091778-01', 'NCGC00091778-02', 'NCGC00091778-03', 'NCGC00091778-04', 'NCGC00091778-05', 'NCGC00091778-06', 'NCGC00254114-01', 'NCGC00259013-01', 'AS-39888', 'SMR000471854', 'D0109', '2,4-Dinitrophenol (wetted with 15 % water)', '9456-EP2284174A1', '9456-EP2316829A1', 'C02496', 'AB00053210_08', '2,4-Dinitrophenol, SAJ special grade, >=98.0%', 'AF-936/31262030', 'Q209226', '2,4-Dinitrophenol, moistened with water, >=98.0%', 'W-105909', '2,4-Dinitrophenol, 96%, stab. with min. 15% water', '2,4-Dinitrophenol, PESTANAL(R), analytical standard', 'BRD-K21910317-001-02-4', 'BRD-K21910317-001-06-5', 'BRD-K21910317-001-12-3', 'F0850-6525', '2,4-Dinitrophenol, technical, moistened with water, >=97.0% (HPLC)']"
146;2-chlorobenzoic acid;-1;C7H5ClO2;156.56;C1=CC=C(C(=C1)C(=O)O)Cl;8374;329.8;;-70.0;-54.6;-68.8;;-13.9;-11.8;-12.1;;9.3;19;8.8;['2-Chlorobenzoic acid', '118-91-2', 'O-CHLOROBENZOIC ACID', 'Benzoic acid, 2-chloro-', '2-Cba', 'Benzoic acid, o-chloro-', 'Kyselina o-chlorbenzoova', 'Benzoic acid, chloro-', 'CHLOROBENZOIC ACID', 'OCBA', '2-chloro-benzoic acid', 'Kyselina o-chlorbenzoova [Czech]', 'UNII-8P0867193V', 'MFCD00002412', 'CHEBI:30793', 'WLN: QVR BG', '8P0867193V', 'CCRIS 5993', 'HSDB 6017', 'EINECS 204-285-4', 'NSC 15042', 'BRN 0907340', 'AI3-03714', 'Benzoic acid,chloro-', 'ortho-chlorobenzoic acid', 'DSSTox_CID_4771', 'SCHEMBL367', 'bmse000332', '2-Chlorobenzoic acid-[d1]', 'DSSTox_RID_77524', 'NCIOpen2_004799', 'DSSTox_GSID_24771', '2-Chlorobenzoic acid, 98%', 'CHEMBL115243', '2-Chlorobenzoic acid-[13C6]', 'RARECHEM AL BO 0021', 'DTXSID4024771', 'TIMTEC-BB SBB040524', 'ZINC330133', 'CS-B1789', 'NSC15042', 'NSC32737', 'AKOS BBS-00003732', 'Tox21_200286', 'LABOTEST-BB LT00784851', 'LABOTEST-BB LT03330966', 'NSC-15042', 'NSC-32737', 'STK301675', 'AKOS000119016', 'AM86361', 'AS00802', 'LS10675', 'MCULE-1696137032', 'PS-5349', 'NCGC00090894-01', 'NCGC00090894-02', 'NCGC00257840-01', '2-Chlorobenzoic acid, analytical standard', '26264-09-5', 'CAS-118-91-2', 'DB-024373', 'FT-0611913', 'C02357', 'D77315', '31505-EP2270114A1', '31505-EP2308858A1', '31505-EP2311816A1', '31505-EP2311817A1', 'A804125', 'AB-131/40168737', 'Q-200261', 'Q2823208', '2-Chlorobenzoic acid, Vetec(TM) reagent grade, 98%', 'Z57127537', '2-Chlorobenzoic Acid Zone Refined (number of passes:20)', 'F9995-1661']
147;2-fluorobenzoic acid;-1;C7H5FO2;140.11;C1=CC=C(C(=C1)C(=O)O)F;9935;331.9;;;;-70.2;;-12.6;-10.5;-10.8;;;;8.4;['2-FLUOROBENZOIC ACID', '445-29-4', 'o-Fluorobenzoic acid', 'Benzoic acid, 2-fluoro-', 'fluorobenzoic acid', 'ortho-Fluorobenzoic acid', 'o-Fluorbenzoesaeure', 'Benzoic acid, o-fluoro-', 'MFCD00002405', 'UNII-64UZ32KOO4', '2-Fluoro-Benzoic Acid', '64UZ32KOO4', 'CHEBI:19577', 'o-Fluorbenzoesaeure [German]', 'Benzoic acid, fluoro-', 'EINECS 207-158-1', 'NSC 10319', 'BRN 0971265', 'AI3-33424', '2-fluoro benzoic acid', 'WLN: QVR BF', 'ACMC-1AN7S', 'o-FluorbenzoesA currencyure', 'SCHEMBL97828', '2-Fluorobenzoic acid, 97%', '2-fluorobenzenecarboxylic acid', '4-09-00-00950 (Beilstein Handbook Reference)', 'CHEMBL114383', 'DTXSID1060001', 'ZINC164451', 'ACT06462', 'NSC10319', 'BBL025787', 'NSC-10319', 'STL164084', 'AKOS000119772', 'AS00814', 'BS-3794', 'CM12709', 'CS-W019975', 'MCULE-2885931404', 'VZ24666', '41406-98-8', 'SY001376', 'DB-024033', 'AM20040490', 'F0035', 'FT-0612411', 'FT-0668608', '10.14272/NSTREUWFTAOOKS-UHFFFAOYSA-N', 'C02359', 'D70123', '31492-EP2272848A1', '31492-EP2308858A1', '31492-EP2311816A1', '31492-EP2311817A1', 'A826617', 'doi:10.14272/NSTREUWFTAOOKS-UHFFFAOYSA-N', 'Q-200284', 'Q27109225', 'Z57914061', 'F2191-0059', '3U4']
148;2-fluorophenol;-1;C6H5FO;112.1;C1=CC=C(C(=C1)O)F;9707;340.4;;;;-69.7;;-9.6;-7.9;-8.0;;;;12.9;['2-FLUOROPHENOL', '367-12-4', 'o-Fluorophenol', 'Phenol, 2-fluoro-', 'Phenol, o-fluoro-', '1-Fluoro-2-hydroxybenzene', '2-fluorohydroxybenzene', 'Phenol, fluoro-', 'Fluorophenol', 'UNII-I9OW1NLY9R', '2-fluoro-phenol', 'I9OW1NLY9R', 'MFCD00002155', 'CCRIS 1226', 'EINECS 206-681-2', 'NSC 10294', 'BRN 1905112', '2-fluoro phenol', 'ortho-fluorophenol', '2-Fluorophenol, 98%', 'ACMC-1CJP4', 'DSSTox_CID_27729', 'DSSTox_RID_82528', 'DSSTox_GSID_47745', 'SCHEMBL78212', '4-06-00-00770 (Beilstein Handbook Reference)', 'CHEMBL224144', 'DTXSID0047745', 'ZINC164476', '2-Fluorophenol, analytical standard', 'NSC10294', 'Tox21_202915', 'NSC-10294', 'STL264214', 'AKOS000118964', 'AS00891', 'LS10471', 'MCULE-2226997458', 'PS-9254', 'NCGC00260461-01', 'CAS-367-12-4', 'DB-028087', '2-Fluorophenol 1000 microg/mL in Methanol', 'AM20040293', 'CS-0018719', 'F0150', 'FT-0612445', 'W-106596', 'Q27280615', 'F0001-1049', 'FP2']