Number;IUPAC_name;Charge;Molecular Formula;Molecular Weight [g/mol];Isomeric SMILES;Pubchem CID;GasPhaseAcidity_B2PLYP//DLPNO-CCSD(T) [kcal/mol];GSolv_Ion_Water [kcal/mol];GSolv_Ion_DMSO [kcal/mol];GSolv_Ion_Acetonitrile [kcal/mol];GSolv_Ion_MeOH [kcal/mol];Gsolv_Neutral_Water_exp [kcal/mol];Gsolv_Neutral_DMSO_TZVPD-Fine [kcal/mol];Gsolv_Neutral_Acetonitrile_TZVPD-Fine [kcal/mol];Gsolv_Neutral_MeOH_TZVPD-Fine [kcal/mol];pka_water;pka_DMSO;pka_Acetonitrile;pka_MeOH;Synonyms
168;4-aminobenzoic acid;-1;C7H7NO2;137.14;C1=CC(=CC=C1C(=O)O)N;978;337.2;;;;-77.6;;-18.6;-14.9;-15.5;;;;10.3;"['4-aminobenzoic acid', '150-13-0', 'p-aminobenzoic acid', 'PABA', 'para-aminobenzoic acid', 'AMINOBENZOIC ACID', 'Vitamin BX', 'p-Carboxyaniline', '4-Carboxyaniline', 'Sunbrella', 'Benzoic acid, 4-amino-', 'p-Carboxyphenylamine', 'Hachemina', 'Paraminol', '1-Amino-4-carboxybenzene', 'Pabacyd', 'Pabafilm', 'Pabamine', 'Paranate', 'Amben', 'Potaba', 'Romavit', 'Bacterial vitamin H1', ""Vitamin H'"", 'Anticanitic vitamin', 'Chromotrichia factor', 'RVPaba Lipstick', 'Papacidum', 'Rvpaba', 'Trichochromogenic factor', 'Anti-chromotrichia factor', 'Super Shade by Coppertone', 'Benzoic acid, p-amino-', 'Acidum paraminobenzoicum', 'Vitamin H1', '4-azaniumylbenzoate', 'ABEE', 'Pabagel', 'Pabanol', '4-AMINO-BENZOIC ACID', 'Caswell No. 033B', 'Kyselina p-aminobenzoova', 'MFCD00007894', 'p-Aminobenzoesaeure', '4-Aminobenzoesaeure', '4-Carboxyphenylamine', 'Acido p-aminobenzoico', 'PAB', 'gamma-Aminobenzoic acid', 'benzoic acid, 4-amino', 'Acido p-aminobenzoico [Italian]', 'UNII-TL2TJE8QTX', 'Kyselina p-aminobenzoova [Czech]', 'para-aminobenzoate', 'Anticantic vitamin', '4-aminobenzoic-acid', 'EPA Pesticide Chemical Code 233300', 'BRN 0471605', 'p-amino benzoic acid', 'p-amino-Benzoic acid', 'CHEBI:30753', 'AI3-02436', 'TL2TJE8QTX', 'Aminobenzoic acid (USP)', 'Aminobenzoic acid [USP]', '.gamma.-Aminobenzoic acid', 'Aniline-4-carboxylic acid', 'CHEMBL542', 'AMINOBENZOIC ACID, PARA', 'Benzoic acid, 4-amino-, homopolymer', 'NCGC00091051-01', '4-aminobenzoicacid', 'DSSTox_CID_4466', 'DSSTox_RID_77411', 'DSSTox_GSID_24466', '25136-77-0', 'CAS-150-13-0', 'SMR000471833', 'CCRIS 6209', 'HSDB 6840', 'NSC 7627', 'EINECS 205-753-0', 'Actipol', 'p-carboxy aniline', 'p-aminobezoic acid', 'gamma-Aminobenzoate', '4-aminobezoic acid', 'Trochromogenic factor', 'Aniline-4-carboxylate', '4-Amino benzoic acid', '4-(amino)benzoic acid', 'Antichromotrichia factor', 'Spectrum_000036', 'RVPaba lipstick (TN)', 'P-AMINO-BENZOATE', 'Spectrum2_000123', 'Spectrum3_000294', 'Spectrum4_000142', 'Spectrum5_000778', 'Tetracaine EP Impurity A', 'P-Aminobenzoic Acid,(S)', 'ACMC-209d3t', 'bmse000066', 'bmse000887', 'bmse000916', 'Epitope ID:115017', 'AMINOBENZOIC-4 ACID', 'EC 205-753-0', 'SCHEMBL8249', '4-Aminobenzoic acid, 99%', 'H-4-ABZ-OH', 'Oprea1_221096', 'BSPBio_001828', 'KBioGR_000584', 'KBioSS_000396', 'ZINC920', 'MLS001066325', 'MLS001335919', 'MLS001335920', 'Para Amino Benzoic Acid USP', 'BIDD:ER0375', 'DivK1c_000783', 'SPBio_000166', 'PARA AMINO BENZOIC ACID', '4-Aminobenzoic acid-[13C6]', 'RARECHEM AL BO 0238', 'component of Presun (Salt/Mix)', 'DTXSID6024466', 'SCHEMBL13232108', 'KBio1_000783', 'KBio2_000396', 'KBio2_002964', 'KBio2_005532', 'KBio3_001328', 'NSC7627', 'NINDS_000783', 'OTAVA-BB 1509951', 'P-AMINOBENZOIC ACID 100G', 'HMS2269E10', 'HMS3870E13', 'LABOTEST-BB LTBB000459', 'ACT09225', 'HY-B1008', 'NSC-7627', 'Tox21_111069', 'Tox21_201702', 'Tox21_300087', 'BDBM50145829', 'LABOTEST-BB LT03328355', 's4510', 'STK397441', 'AKOS000118983', 'Tox21_111069_1', 'AC-8107', 'AM86626', 'AS00762', 'CCG-266139', 'CS-4505', 'DB02362', 'MCULE-3535374816', 'IDI1_000783', '4-Aminobenzoic acid, analytical standard', 'NCGC00091051-02', 'NCGC00091051-03', 'NCGC00091051-04', 'NCGC00253923-01', 'NCGC00259251-01', 'AS-12493', 'NCI60_041683', 'SY003749', 'SBI-0051277.P003', 'DB-028695', '4-Aminobenzoic acid, ReagentPlus(R), 99%', 'A0269', 'FT-0617557', '4-Aminobenzoic acid, >=98.0% (HPLC/NT)', '3297-EP2308861A1', '3297-EP2308868A1', '3297-EP2311809A1', '4-Aminobenzoic acid, ReagentPlus(R), >=99%', '6761-EP1441224A2', '6761-EP2295402A2', 'C00568', 'D02456', '48316-EP2281563A1', '48316-EP2308874A1', '48316-EP2311494A1', 'A809010', 'Q284959', '4-Aminobenzoic acid, Vetec(TM) reagent grade, 98%', 'Q-200432', '4-Aminobenzoic acid, purified by sublimation, >=99%', 'Z57127446', '4-Aminobenzoic acid, 98.5-100.2%, SAJ first grade', '4-Aminobenzoic acid, SAJ special grade, 99.5-100.2%', 'F2191-0259', '4A5E7DD8-8A22-4642-86BF-05B778C0C78E', '4-Aminobenzoic acid, European Pharmacopoeia (EP) Reference Standard', 'Aminobenzoic acid, United States Pharmacopeia (USP) Reference Standard', 'Aminobenzoic Acid, Pharmaceutical Secondary Standard; Certified Reference Material']"
169;pyridin-4-amine;-1;C5H6N2;94.11;C1=CN=CC=C1N;1727;352.0;;-67.1;;;;-12.3;-10.6;-12.1;;26.5;;;['4-aminopyridine', '504-24-5', 'pyridin-4-amine', '4-Pyridinamine', 'Fampridine', 'Dalfampridine', '4-Pyridylamine', 'p-Aminopyridine', 'Avitrol', '4-AP', 'gamma-Aminopyridine', 'Ampyra', 'Avitrol 200', 'Pyridine, 4-amino-', 'Amino-4 pyridine', 'Pimadin (free base)', 'Compound 1861', 'Phillips 1861', 'FAMPYRA', 'Neurelan', 'Amaya', 'Prc 1237', 'VMI 10-3', 'C5H6N2', '4-amino pyridine', '4-amino-pyridine', 'UNII-BH3B64OKL9', '4- Aminopyridine', 'pyridin-4-ylamine', 'EL-970', 'NSC 15041', '.gamma.-Aminopyridine', '4-AMINOPYRDINE', 'N07XX07', 'BH3B64OKL9', 'MLS000069400', 'CHEMBL284348', 'Dalfampridine (4-aminopyridine)', 'CHEBI:34385', 'MFCD00006439', 'NSC-15041', '4-Pyridinamine, labeled with deuterium', 'NCGC00015009-08', 'SMR000058211', '4 Aminopyridine', 'Fampridine-SR', 'DSSTox_CID_3870', 'DSSTox_RID_77212', 'DSSTox_GSID_23870', '4AP', 'Caswell No. 038', 'VMI-103', 'Mi-W-3', '916979-36-7', 'CAS-504-24-5', 'Ampyra (TN)', 'HSDB 6037', 'VMI 103', 'SR-01000075299', 'EINECS 207-987-9', 'RCRA waste no. P008', 'EPA Pesticide Chemical Code 069201', 'Dalfampridine [USAN:INN]', 'BRN 0105782', 'fampridina', 'fampridinum', 'Frampridine', 'Ampydin', 'BIIB041', 'Pymadin', 'AI3-52547', 'BIIB 041', 'Fampridine-PR', 'Dalfampridine-ER', '4-pyridyl amine', 'para-aminopyridine', 'pyridine-4-amine', '3rxf', 'Neurelan (TN)', 'pyridine-4-ylamine', 'Fampridine [INN]', 'Fampyra (TN)', 'pyridin-4-yl-amine', '4-Aminopyridine 10', 'Philips 1861', 'Dalfampridine (USAN)', 'Spectrum_000155', 'Tocris-0940', 'Fampridine (JAN/INN)', '4-Aminopyridine, 98%', 'PYRIDINE,4-AMINO', 'Opera_ID_1768', 'Spectrum2_001413', 'Spectrum3_000914', 'Spectrum4_001013', 'Spectrum5_001501', 'Lopac-A-0152', 'UPCMLD-DP125', 'WLN: T6NJ DZ', '4-Aminopyridine (4-AP)', '4-Aminopyridine, >=99%', '1,4-dihydropyridin-4-imine', 'Lopac0_000032', 'BSPBio_001562', 'KBioGR_000282', 'KBioGR_001505', 'KBioSS_000282', 'KBioSS_000635', '4-imino-1,4-dihydropyridine', '5-22-09-00106 (Beilstein Handbook Reference)', 'DivK1c_000572', 'SPECTRUM1501130', 'SPBio_001486', '4 AP', 'BIIB-041', 'GTPL2416', 'CL-COB-III-274-1', 'DTXSID0023870', 'UPCMLD-DP125:001', 'AMPD00207', 'BDBM10458', 'HMS501M14', 'KBio1_000572', 'KBio2_000282', 'KBio2_000635', 'KBio2_002850', 'KBio2_003203', 'KBio2_005418', 'KBio2_005771', 'KBio3_000563', 'KBio3_000564', 'KBio3_001888', 'NINDS_000572', 'Bio1_000353', 'Bio1_000842', 'Bio1_001331', 'Bio2_000282', 'Bio2_000762', 'HMS1361O04', 'HMS1791O04', 'HMS1921H15', 'HMS1989O04', 'HMS2092F05', 'HMS2234N24', 'HMS3260G05', 'HMS3267E21', 'HMS3370J03', 'HMS3402O04', 'HMS3414H15', 'HMS3678H13', 'HMS3886I09', 'KUC111877N', 'Pharmakon1600-01501130', 'ZINC599985', 'ACT05167', 'HY-B0604', 'NSC15041', 'VMI-10-3', 'Tox21_110065', 'Tox21_200793', 'Tox21_500032', 'BBL009925', 'CCG-39031', 'HTS004685', 'NSC757845', 'RB8003', 's5028', 'STK298717', 'AKOS000119896', 'Tox21_110065_1', 'BS-3729', 'DB06637', 'LP00032', 'LS20499', 'MCULE-6604546217', 'NSC-757845', 'QC-4324', 'SDCCGMLS-0066228.P001', 'SDCCGSBI-0050021.P004', 'VP10051', 'IDI1_000572', 'IDI1_034032', 'p-Aminopyridine [UN2671]  [Poison]', 'NCGC00015009-01', 'NCGC00015009-02', 'NCGC00015009-03', 'NCGC00015009-04', 'NCGC00015009-05', 'NCGC00015009-06', 'NCGC00015009-07', 'NCGC00015009-09', 'NCGC00015009-10', 'NCGC00015009-11', 'NCGC00015009-12', 'NCGC00015009-13', 'NCGC00015009-14', 'NCGC00015009-16', 'NCGC00015009-23', 'NCGC00015009-24', 'NCGC00024890-01', 'NCGC00024890-02', 'NCGC00024890-03', 'NCGC00024890-04', 'NCGC00024890-05', 'NCGC00024890-06', 'NCGC00024890-07', 'NCGC00024890-08', 'NCGC00024890-09', 'NCGC00024890-10', 'NCGC00258347-01', 'NCGC00260717-01', 'BP-21343', 'SBI-0050021.P003', 'DB-028705', 'A0414', 'AM20061261', 'B3530', 'EU-0100032', 'FT-0665455', 'AZ0001-0464', 'A 0152', 'D04127', '68146-EP2269990A1', '68146-EP2284157A1', '68146-EP2289894A2', '68146-EP2298731A1', '68146-EP2308874A1', '68146-EP2380872A1', '79676-EP2305695A2', '79676-EP2305696A2', '79676-EP2305697A2', '79676-EP2305698A2', 'AB00052209_12', '[J.Pharmacol.Exp.Ther. 275:864 (1995)]', 'AC-907/25014071', 'Q372539', '4-Aminopyridine, PESTANAL(R), analytical standard', 'Q-200436', 'SR-01000075299-1', 'SR-01000075299-3', 'SR-01000075299-5', 'F2190-0487', 'Z955123498', 'METHYL3,5-DIBROMO-2,4-DIHYDROXY-6-METHYLBENZOATE', 'Dalfampridine, United States Pharmacopeia (USP) Reference Standard']
170;4-chlorobenzoic acid;-1;C7H5ClO2;156.56;C1=CC(=CC=C1C(=O)O)Cl;6318;;;;;;;-13.0;-10.9;-11.4;;10.1;;9;['4-Chlorobenzoic acid', '74-11-3', 'P-CHLOROBENZOIC ACID', 'Benzoic acid, 4-chloro-', 'p-Chlorbenzoic acid', 'Chlorodracylic acid', 'para-Chlorobenzoic acid', 'Benzoic acid, p-chloro-', '4-CHLORO-BENZOIC ACID', 'p-Carboxychlorobenzene', 'Acido p-clorobenzoico', 'Acido p-clorobenzoico [Italian]', 'UNII-IC7888DF4L', '4-chloro benzoic acid', 'MFCD00002531', 'IC7888DF4L', 'CHEBI:30747', 'NCGC00090858-02', 'CCRIS 5994', 'HSDB 6019', 'EINECS 200-805-9', 'NSC 32738', 'BRN 0907196', 'AI3-03715', '1173019-28-7', 'DSSTox_CID_4772', '2-chloro-5-carboxybenzene', 'bmse000438', 'CHEMBL618', 'DSSTox_RID_77525', 'NCIOpen2_004782', 'DSSTox_GSID_24772', 'SCHEMBL28384', '4-Chlorobenzoic acid, 99%', '4-09-00-00973 (Beilstein Handbook Reference)', 'MLS002152923', 'ACMC-20976t', 'Indomethacin Related Compound B', '4-Chlorobenzoic acid-[13C6]', 'DTXSID9024772', 'NSC8444', 'ZINC156865', 'CS-M3680', 'NSC-8444', 'NSC32738', 'STR00110', 'Tox21_400062', 'BDBM50405318', 'NSC-32738', 'STL164311', 'AKOS000118962', 'AS00806', 'DB03728', 'LS10674', 'MCULE-2882010588', 'PS-4074', 'CAS-74-11-3', 'NCGC00090858-01', 'NCGC00090858-03', '4-Chlorobenzoic acid, analytical standard', 'SMR001224523', 'DB-055838', 'FT-0618183', 'C02370', 'D77513', '31510-EP2272839A1', '31510-EP2272840A1', '31510-EP2284146A2', '31510-EP2284147A2', '31510-EP2308858A1', '31510-EP2311816A1', '31510-EP2311817A1', '44639-EP2281819A1', '44639-EP2292619A1', '44639-EP2305659A1', '44639-EP2311818A1', 'AE-562/40168810', 'Q2235989', 'SR-01000855009-2', 'W-104433', '4-Chlorobenzoic acid, Vetec(TM) reagent grade, 98%', 'F2191-0096', 'Z1258943359', 'Acemetacin impurity A, European Pharmacopoeia (EP) Reference Standard', 'Indomethacin Related Compound B, United States Pharmacopeia (USP) Reference Standard']
171;4-hydroxybenzonitrile;-1;C7H5NO;119.12;C1=CC(=CC=C1C#N)O;13019;325.4;;;-46.6;;;-15.8;-13.3;-13.6;;;22.8;;"['4-Hydroxybenzonitrile', '4-Cyanophenol', '767-00-0', 'p-Hydroxybenzonitrile', 'P-CYANOPHENOL', 'Benzonitrile, 4-hydroxy-', '4-CYANO PHENOL', 'Benzonitrile, p-hydroxy-', '4-Hydroxy benzonitrile', '4-Hydroxybenzoic acid nitrile', '4-hydroxy-benzonitrile', 'UNII-1S13529YJU', 'CHEBI:38622', '1S13529YJU', 'MFCD00002312', 'EINECS 212-175-2', 'NSC 400524', 'paracyanophenol', 'AI3-52392', 'p-cyano-phenol', '4 -cyanophenol', '4-cyano-phenol', 'para-cyanophenol;', '4-hydroxybezonitrile', '4-hydroxybenzylnitrile', 'p-hydroxy-benzonitrile', 'p-hydroxybenzo-nitrile', 'p-hydroxy- benzonitrile', 'phenol derivative, 10', '4-Cyanophenol, 95%', 'CYANOPHENOL(4-)', 'WLN: QR DCN', 'ACMC-1BD5Q', '4-Hydroxyphenylcarbonitrile', 'DSSTox_CID_31082', 'DSSTox_GSID_52509', 'SCHEMBL50814', 'CHEMBL66381', 'PARAGOS 460039', 'DTXSID9052509', 'BDBM26196', 'TIMTEC-BB SBB008054', 'SR-1C14', 'AKOS B004225', 'ART-CHEM-BB B004225', 'LABOTEST-BB LTBB004882', 'ZINC388759', 'AKOS 217-25', 'BCP27582', 'CS-D1446', 'STR00817', 'Tox21_303855', 'NSC400524', 'STK031626', '4-HYDROXY-BENZOIC ACID,NITRILE', 'AKOS000118747', 'AC-2512', 'AS02647', 'EBD2204923', 'MCULE-2531424798', 'NSC-400524', 'PS-3371', 'NCGC00357121-01', '769-79-9', 'CAS-767-00-0', 'SY001726', 'AM20050113', 'FT-0612050', 'W-104347', 'Q27117923', '4-Hydroxybenzonitrile, PESTANAL(R), analytical standard', 'F0001-1958', 'Z1262254262', 'H8N']"
172;4-fluorobenzoic acid;-1;C7H5FO2;140.11;C1=CC(=CC=C1C(=O)O)F;9973;330.7;;;;-67.6;;-12.1;-10.0;-10.5;;;;9.2;['4-FLUOROBENZOIC ACID', '456-22-4', 'p-Fluorobenzoic acid', 'Benzoic acid, 4-fluoro-', 'para-Fluorobenzoic acid', '4-fluoro-benzoic acid', 'Benzoic acid, p-fluoro-', 'UNII-V5ROO2HOU4', 'MFCD00002530', 'p-flurobenzoic acid', 'V5ROO2HOU4', 'CHEBI:20364', '4-flurobenzoic acid', 'p-fluoro-Benzoic acid', '4-Fluorobenzoicacid', 'EINECS 207-259-0', 'NSC 10321', '4-flouro benzoic acid', '4-fluoro benzoic acid', 'ACMC-209k3t', 'bmse000739', 'SCHEMBL27498', '4-Fluorobenzoic acid, 98%', 'CHEMBL316860', 'PARAGOS 390190', 'RARECHEM AL BO 0053', 'DTXSID9060023', 'TIMTEC-BB SBB008568', 'Benzoic acid, p-fluoro- (8CI)', 'OTAVA-BB 1506397', 'AKOS 92636', 'ZINC159828', 'ACT00989', 'NSC10321', 'BBL009678', 'NSC-10321', 'STL141031', 'AKOS000118941', 'AS00747', 'CM12711', 'CS-W014393', 'MCULE-8450862504', 'PS-9056', 'VZ29074', 'AC-10259', 'SY001592', 'DB-024083', '4-Fluorobenzoic acid,purified by sublimation', 'AM20040510', 'BB 0221130', 'F0112', 'FT-0650144', 'C02371', 'D70922', '31501-EP2308848A1', '31501-EP2308858A1', '31501-EP2311816A1', '31501-EP2311817A1', 'A826862', 'AE-562/40177766', '4-Fluorobenzoic acid, 99%, purified by sublimation', 'Q-200470', 'Q63390495', 'Z57367354', 'F2191-0062', '1Y6']
173;4-hydroxybenzaldehyde;-1;C7H6O2;122.12;C1=CC(=CC=C1C=O)O;126;326.9;;;;-63.0;;-15.1;-13.0;-13.5;;;;12;"['4-hydroxybenzaldehyde', 'p-Hydroxybenzaldehyde', '123-08-0', '4-Formylphenol', 'p-Formylphenol', 'Benzaldehyde, 4-hydroxy-', 'p-Oxybenzaldehyde', 'Parahydroxybenzaldehyde', '4-HYDROXY-BENZALDEHYDE', 'Benzaldehyde, p-hydroxy-', '4-Hydroxy benzaldehyde', 'USAF M-6', 'MFCD00006939', 'NSC 2127', 'p-Hydroxy-benzaldehyde', 'UNII-O1738X3Y38', 'Para-Hydroxybenzaldehyde', '4-Hydroxybenzenecarbonal', 'CHEMBL14193', 'PARA-HYDROXY BENZALDEHYDE', 'CHEBI:17597', 'O1738X3Y38', 'EINECS 204-599-1', 'BRN 0471352', 'AI3-15366', 'CCRIS 8911', '4-formyl phenol', '4-formyl-phenol', '4hydroxybenzaldehyde', 'p-hydroxibezaldehyde', 'p-hydroxybenzaldehye', '4-hydoxybenzaldehyde', '4-hydroxybenzaldehyd', '4-hydroxybezaldehyde', '4-Hydroxybenzaldehye', '4-hydroxibenzaldehyde', '4-hydroxylbenzaldehyde', 'p-hydroxy benzaldehyde', '4--hydroxybenzaldehyde', 'p-hydroxyl benzaldehyde', '4-hydroxyl benzaldehyde', '4-hydroxy- benzaldehyde', 'ACMC-1BUCE', 'WLN: VHR DQ', 'bmse000259', 'bmse000582', 'bmse010005', 'SCHEMBL37193', '4-Hydroxybenzaldehyde, 98%', '4-08-00-00251 (Beilstein Handbook Reference)', 'BIDD:ER0339', 'p-Hydroxybenzaldehyde, Pract.', 'PARAGOS 460038', 'HYDROXYBENZALDEHYDE, 4-', '4-Hydroxybenzaldehyde, >=97%', 'DTXSID8059552', 'FEMA 3984', 'TIMTEC-BB SBB028743', 'NSC2127', '1k03', 'AKOS B004220', 'ART-CHEM-BB B004220', 'ZINC156709', 'ACT01156', 'BCP26952', 'CS-D1179', 'HY-Y0313', 'NSC-2127', 'STR00705', 'AKOS BBS-00003195', '4-Hydroxybenzaldehyde, >=97%, FG', 'BBL010374', 'BDBM50177411', 'BR1235', 'LABOTEST-BB LT00487051', 'LABOTEST-BB LT03331052', 's6008', 'STK188428', 'AKOS000119184', 'AC-2984', 'AM10667', 'AS02994', 'DB03560', 'EBD2224221', 'MCULE-3788300475', 'PS-3635', 'NCGC00188243-01', 'NCGC00188243-02', '4-Hydroxybenzaldehyde, analytical standard', 'BP-30158', 'SY003489', '4-Hydroxybenzaldehyde, >=95.0% (HPLC)', 'DB-003763', 'FT-0631713', 'FT-0669408', 'H0198', '4-(Hydroxymethylene)-2,5-cyclohexadiene-1-one', 'C00633', 'H-3800', '85361-EP2272817A1', '85361-EP2272972A1', '85361-EP2272973A1', '85361-EP2277872A1', '85361-EP2284157A1', '85361-EP2289868A1', '85361-EP2289879A1', '85361-EP2305808A1', 'AB-131/40191192', 'Q1953888', '4-Hydroxybenzaldehyde, Vetec(TM) reagent grade, 95%', 'Z57127520', 'F2190-0635', 'p-Hydroxybenzaldehyde;4-Formylphenol;p-Formylphenol;Bisoprolol Fumarate EP Impurity S']"
174;4-hydroxybenzoic acid;-1;C7H6O3;138.12;C1=CC(=CC=C1C(=O)O)O;135;328.6;;;-54.6;-70.4;;-19.5;-15.4;-16.4;;;20.8;10;"['4-HYDROXYBENZOIC ACID', '99-96-7', 'p-Hydroxybenzoic acid', '4-Carboxyphenol', 'Benzoic acid, 4-hydroxy-', 'p-Salicylic acid', 'para-Hydroxybenzoic acid', 'Benzoic acid, p-hydroxy-', '4-Hydroxybenzoesaeure', '4-hydroxy benzoic acid', 'p-Oxybenzoesaure [German]', 'PHBA', '4-hydroxy-benzoic acid', 'Paraben-acid', 'Acido p-idrossibenzoico [Italian]', 'Kyselina 4-hydroxybenzoova', 'Kyselina 4-hydroxybenzoova [Czech]', 'NSC 4961', 'UNII-JG8Z55Y12H', '4-Hydroxybenzoicacid', 'HYDROXYBENZOIC ACID, PARA', 'p-hydroxy benzoic acid', 'p-hydroxy-Benzoic acid', 'Hydroxybenzoic acid', 'Hydroxybenzenecarboxylic acid', '4-HBA', 'HSDB 7233', 'CHEMBL441343', 'JG8Z55Y12H', 'EINECS 202-804-9', 'CHEBI:30763', 'MFCD00002547', 'AI3-01003', 'Benzoic acid, 4-hydroxy-, homopolymer', '3pcc', '3pch', '4-hydroxy-benzoate', 'DSSTox_CID_6647', 'DSSTox_RID_78173', 'DSSTox_GSID_26647', 'Benzoic acid, p-hydroxy', 'Benzoic acid, 4-hydroxy', 'WLN: QVR DQ', 'p-Oxybenzoesaure', 'CAS-99-96-7', 'NSC4961', '30729-36-3', 'Acido p-idrossibenzoico', 'DB04242', 'NCGC00166040-01', 'C00156', 'p-Salicylate', 'AE-848/32195059', 'CCRIS 8812', 'p-hydroxy-Benzoate', 'para-salicylic acid', '4-hydoxybenzoic acid', '4-hyroxybenzoic acid', 'parahydroxybenzoic acid', 'phenol derivative, 8', '4-hydroxylbenzoic acid', '4-Hydroxy-benzoesaeure', '4-hydroxybenzoi c acid', 'ACMC-209sel', '4-hydroxyl benzoic acid', '4-Hydroxybenzoate, III', 'para-hydroxy benzoic acid', 'Para Hydroxy Benzoic Acid', 'bmse000092', 'bmse000583', 'EC 202-804-9', 'SCHEMBL4110', 'BIDD:ER0706', '4-Hydroxybenzenecarboxylic acid', 'p-Hydroxybenzoic Acid, Reagent', 'DTXSID3026647', 'BDBM26194', 'Salicylic acid Related Compound A', 'LR-68', 'ZINC332752', 'CS-D1180', 'HY-Y0264', 'NSC-4961', 'STR01287', 'Tox21_202342', 'Tox21_303301', 'AC-008', 'BBL011981', 's3754', 'STL138745', '4-Hydroxybenzoic acid, >=99%, FG', 'AKOS000119033', 'AM87513', 'CCG-266143', 'MCULE-1367764897', 'NCGC00166040-02', 'NCGC00257058-01', 'NCGC00259891-01', 'FT-0618695', 'FT-0669322', 'H0207', '4-Hydroxybenzoic acid, ReagentPlus(R), 99%', 'D86505', '4-Hydroxybenzoic acid, ReagentPlus(R), >=99%', '44643-EP2281819A1', '44643-EP2292619A1', '44643-EP2298735A1', '44643-EP2305659A1', '44643-EP2311809A1', '44643-EP2311818A1', '194587-EP2371808A1', '4-Hydroxybenzoic acid, puriss., >=99.0% (T)', 'A858402', 'Q229970', '46DD083D-BFD3-4CE1-B2D9-6C6D5FEFD3D9', 'J-660066', 'W-100004', '4-Hydroxybenzoic acid, Vetec(TM) reagent grade, 99%', 'F2191-0237', 'Z1259273385', 'UNII-I3P9R8317T component FJKROLUGYXJWQN-UHFFFAOYSA-N', '4-Hydroxybenzoic acid, certified reference material, TraceCERT(R)', '4-Hydroxybenzoic acid, Pharmaceutical Secondary Standard; Certified Reference Material', 'Salicylic acid Related Compound A, United States Pharmacopeia (USP) Reference Standard']"