Number;IUPAC_name;Charge;Molecular Formula;Molecular Weight [g/mol];Isomeric SMILES;Pubchem CID;GasPhaseAcidity_B2PLYP//DLPNO-CCSD(T) [kcal/mol];GSolv_Ion_Water [kcal/mol];GSolv_Ion_DMSO [kcal/mol];GSolv_Ion_Acetonitrile [kcal/mol];GSolv_Ion_MeOH [kcal/mol];Gsolv_Neutral_Water_exp [kcal/mol];Gsolv_Neutral_DMSO_TZVPD-Fine [kcal/mol];Gsolv_Neutral_Acetonitrile_TZVPD-Fine [kcal/mol];Gsolv_Neutral_MeOH_TZVPD-Fine [kcal/mol];pka_water;pka_DMSO;pka_Acetonitrile;pka_MeOH;Synonyms
127;benzoic acid;1;C7H6O2;122.12;C1=CC=C(C=C1)C(=O)O;243;187.0;;;-84.2;;;-12.2;-10.1;-10.6;;;0;;"['benzoic acid', '65-85-0', 'Dracylic acid', 'benzenecarboxylic acid', 'Carboxybenzene', 'Benzeneformic acid', 'phenylformic acid', 'Benzenemethanoic acid', 'Phenylcarboxylic acid', 'Retardex', 'Benzoesaeure GK', 'Benzoesaeure GV', 'Retarder BA', 'Tenn-Plas', 'Acide benzoique', 'Salvo liquid', 'Solvo powder', 'Benzoesaeure', 'Flowers of benzoin', 'Flowers of benjamin', 'Benzoic acid, tech.', 'Unisept BZA', 'HA 1 (acid)', 'Kyselina benzoova', 'Benzoic acid (natural)', 'Benzoate (VAN)', 'HA 1', 'Benzoesaeure [German]', 'Caswell No. 081', 'Diacylic acid', 'Oracylic acid', 'Acide benzoique [French]', 'Acido benzoico [Italian]', 'Benzenemethonic acid', 'Kyselina benzoova [Czech]', 'NSC 149', 'E 210', 'FEMA No. 2131', 'CCRIS 1893', 'Diacylate', 'HSDB 704', 'UNII-8SKN0B0MIM', 'AI3-0310', 'Salvo, liquid', 'Solvo, powder', 'AI3-03710', 'phenyl formic acid', 'EPA Pesticide Chemical Code 009101', 'Benzoic acid Natural', 'E210', 'CHEBI:30746', 'Aromatic carboxylic acid', 'MFCD00002398', '8SKN0B0MIM', 'Benzeneformate', 'Phenylformate', 'Benzenemethanoate', 'Phenylcarboxylate', 'Benzenecarboxylate', 'DSSTox_CID_143', 'DSSTox_RID_75396', 'DSSTox_GSID_20143', 'Acido benzoico', 'Benzoic-2,3,4,5,6-d5 acid', 'Carboxypolystyrene', 'Benzoic acid [USAN:JAN]', 'CAS-65-85-0', 'NSC7918', 'Benzoic acid (TN)', 'EINECS 200-618-2', 'Benzoic acid [USP:JAN]', 'phenylcarboxy', 'Dracylate', 'benzoic aicd', 'benzoic-acid', 'bezoic acid', 'Aromatic acid', 'benzenecarboxylic', 'Salvo powder', 'benzoic- acid', 'Retarder BAX', '1gyx', '1kqb', 'Benzoic Acid USP', 'Sodium benzoic acid', 'Benzoic Acid,(S)', 'Natural Benzoic Acid', 'Benzoic acid solution', 'BENZOICACID-D5', 'Benzoic acid-[13C7]', 'WLN: QVR', 'benzene-2-carboxylic acid', 'Benzoic Acid-[18O2]', 'Benzoic acid, ACS reagent', 'bmse000300', 'CHEMBL541', 'Epitope ID:139965', 'EC 200-618-2', 'SCHEMBL1378', 'ACMC-1BI02', 'SAMPL4, O1', 'Benzoic acid (JP17/USP)', 'MLS002415717', 'BIDD:ER0597', 'Benzoic acid, AR, >=99%', 'Benzoic acid, LR, >=99%', 'NSC149', 'ZINC1011', 'DTXSID6020143', 'FEMA 2131', 'Benzoic acid (7CI,8CI,9CI)', 'Benzoic acid, analytical standard', 'Benzoic acid, p.a., 99.5%', 'NSC-149', 'BDBM197302', 'HMS2092F18', 'HMS2267D03', 'HMS3652B03', 'Pharmakon1600-01503001', 'HY-N0216', 'Tox21_202403', 'Tox21_300180', 'NSC758203', 's4161', 'STK301730', 'Benzoic acid, ReagentPlus(R), 99%', 'AKOS000119619', 'AS04617', 'BS-3752', 'CCG-213088', 'DB03793', 'LS41489', 'MCULE-4467353796', 'NSC-758203', 'Benzoic acid 100 microg/mL in Acetone', 'Benzoic acid, >=99.5%, FCC, FG', 'Benzoic acid, ACS reagent, >=99.5%', 'NCGC00091886-01', 'NCGC00091886-02', 'NCGC00091886-03', 'NCGC00254112-01', 'NCGC00259952-01', 'Benzoic acid, USP, 99.5-100.5%', 'BP-30148', 'K073', 'SMR001252220', 'SY009192', 'Benzoic acid, tested according to Ph.Eur.', 'SBI-0206720.P001', 'Benzoic acid, SAJ first grade, >=99.5%', 'DB-029471', '606-EP2269610A2', '606-EP2269988A2', '606-EP2270002A1', '606-EP2270006A1', '606-EP2270008A1', '606-EP2270009A1', '606-EP2270010A1', '606-EP2270011A1', '606-EP2270114A1', '606-EP2272822A1', '606-EP2272827A1', '606-EP2272848A1', '606-EP2274983A1', '606-EP2275105A1', '606-EP2275401A1', '606-EP2275413A1', '606-EP2277507A1', '606-EP2277848A1', '606-EP2277867A2', '606-EP2277870A1', '606-EP2277879A1', '606-EP2277881A1', '606-EP2280003A2', '606-EP2280010A2', '606-EP2281559A1', '606-EP2281563A1', '606-EP2281812A1', '606-EP2281819A1', '606-EP2281823A2', '606-EP2284146A2', '606-EP2284147A2', '606-EP2284149A1', '606-EP2284160A1', '606-EP2284165A1', '606-EP2284169A1', '606-EP2284178A2', '606-EP2284179A2', '606-EP2286795A1', '606-EP2287153A1', '606-EP2287156A1', '606-EP2287161A1', '606-EP2287162A1', '606-EP2287165A2', '606-EP2287166A2', '606-EP2289510A1', '606-EP2289876A1', '606-EP2289883A1', '606-EP2289890A1', '606-EP2292592A1', '606-EP2292597A1', '606-EP2292617A1', '606-EP2292619A1', '606-EP2292620A2', '606-EP2292621A1', '606-EP2292624A1', '606-EP2295401A2', '606-EP2295402A2', '606-EP2295416A2', '606-EP2295418A1', '606-EP2295424A1', '606-EP2295426A1', '606-EP2295427A1', '606-EP2295429A1', '606-EP2295433A2', '606-EP2295438A1', '606-EP2295550A2', '606-EP2298734A2', '606-EP2298735A1', '606-EP2298742A1', '606-EP2298744A2', '606-EP2298748A2', '606-EP2298755A1', '606-EP2298758A1', '606-EP2298759A1', '606-EP2298772A1', '606-EP2298776A1', '606-EP2298783A1', '606-EP2301536A1', '606-EP2301538A1', '606-EP2301911A1', '606-EP2301924A1', '606-EP2301925A1', '606-EP2301929A1', '606-EP2301931A1', '606-EP2301935A1', '606-EP2301937A1', '606-EP2301939A1', '606-EP2301940A1', '606-EP2305250A1', '606-EP2305257A1', '606-EP2305646A1', '606-EP2305651A1', '606-EP2305659A1', '606-EP2305662A1', '606-EP2305664A1', '606-EP2305668A1', '606-EP2305669A1', '606-EP2305672A1', '606-EP2305674A1', '606-EP2305675A1', '606-EP2305679A1', '606-EP2305687A1', '606-EP2308833A2', '606-EP2308839A1', '606-EP2308848A1', '606-EP2308851A1', '606-EP2308854A1', '606-EP2308857A1', '606-EP2308858A1', '606-EP2308861A1', '606-EP2308865A1', '606-EP2308873A1', '606-EP2308875A1', '606-EP2308877A1', '606-EP2311455A1', '606-EP2311801A1', '606-EP2311802A1', '606-EP2311803A1', '606-EP2311807A1', '606-EP2311809A1', '606-EP2311810A1', '606-EP2311811A1', '606-EP2311815A1', '606-EP2311816A1', '606-EP2311817A1', '606-EP2311818A1', '606-EP2311831A1', '606-EP2311842A2', '606-EP2314295A1', '606-EP2314579A1', '606-EP2314584A1', '606-EP2314588A1', '606-EP2314593A1', '606-EP2316457A1', '606-EP2316458A1', '606-EP2316459A1', '606-EP2316825A1', '606-EP2316826A1', '606-EP2316827A1', '606-EP2316828A1', '606-EP2316836A1', '606-EP2371814A1', '606-EP2371831A1', '606-EP2372017A1', '606-EP2374788A1', '606-EP2377845A1', 'B0062', 'B2635', 'CS-0008257', 'FT-0622705', 'FT-0662569', 'FT-0662570', 'FT-0770591', 'SW219833-1', 'Benzoic acid, natural, >=99.5%, FCC, FG', 'Benzoic acid, SAJ special grade, >=99.5%', 'Benzoic acid, Vetec(TM) reagent grade, 98%', 'Benzoic acid, meets USP testing specifications', 'Benzoic acid, purified by sublimation, >=99%', 'C00180', 'C00539', 'D00038', 'D85168', 'AB00949635_05', 'AB00949635_06', 'A835250', 'A934445', 'Benzoic Acid Zone Refined (number of passes:20)', 'Q191700', 'SR-05000001919', 'Benzoic acid, puriss. p.a., ACS reagent, 99.9%', 'SR-05000001919-1', '0BE368DC-6DE6-4927-AECF-E4BB2968A4A0', 'Melting point standard 121-123C, analytical standard', 'Z57127480', 'F2191-0092', 'Benzoic acid, NIST(R) SRM(R) 39j, calorimetric standard', 'Benzoic acid, Standard for quantitative NMR, TraceCERT(R)', 'Benzoic acid, European Pharmacopoeia (EP) Reference Standard', 'Mettler-Toledo Calibration substance ME 18555, Benzoic acid', 'Benzoic acid on polystyrene, 1.6-2.1 mmol/g@CRLFMFCD03456189', 'Benzoic acid, for calorimetrical determination (approx. 26460 J/g)', 'Benzoic acid, United States Pharmacopeia (USP) Reference Standard', 'SS Benzoic Acid, 2000 mug/mL in dichloromethane, analytical standard', 'Benzoic acid solution, 200 mug/mL in methylene chloride, analytical standard', 'Benzoic Acid Solution, certified reference material, 2000 mug/mL in methylene chloride', 'Benzoic acid, Pharmaceutical Secondary Standard; Certified Reference Material', 'Benzoic acid, puriss. p.a., ACS reagent, reag. Ph. Eur., >=99.9% (alkalimetric)', 'Benzoic acid, certified reference material for titrimetry, certified by BAM according to ISO 17025, >=99.5%', 'Benzoic acid, meets analytical specification of Ph. Eur., BP, USP, FCC, E210, 99.5-100.5% (alkalimetric)', 'Carboxypolystyrene, 100-200 mesh, extent of labeling: 0.5-1.5 mmol/g loading, 1 % cross-linked', 'Carboxypolystyrene, 100-200 mesh, extent of labeling: 1.6-3.0 mmol/g loading, 1 % cross-linked', 'Mettler-Toledo Calibration substance ME 18555, Benzoic acid, analytical standard, for the calibration of the thermosystem 900, traceable to primary standards (LGC)', 'ScavengePore(TM) benzoic acid, macroporous, 40-70 mesh, extent of labeling: 0.5-1.5 mmol per g loading']"
128;phenylmethanamine;1;C7H9N;107.15;C1=CC=C(C=C1)CN;7504;213.4;;;-77.9;;;-7.1;-7.3;-8.5;;;16.8;;['BENZYLAMINE', 'phenylmethanamine', '100-46-9', 'Benzenemethanamine', 'Monobenzylamine', 'alpha-Aminotoluene', '1-phenylmethanamine', '(Phenylmethyl)amine', '(Aminomethyl)benzene', 'N-Benzylamine', 'Moringine', 'Phenylmethylamine', 'Sumine 2005', 'Aminotoluene', 'benzyl amine', 'Sumine 2006', 'omega-Aminotoluene', '89551-24-6', '.omega.-Aminotoluene', 'benzyl-amine', 'a-Aminotoluene', '1utj', '1utn', '2bza', 'NSC 8046', 'UNII-A1O31ROR09', 'MFCD00008106', '.alpha.-Aminotoluene', 'CHEBI:40538', 'TOLUENE,ALPHA-AMINO', 'CHEMBL522', 'A1O31ROR09', 'ABN', 'MFCD00145849', 'HSDB 2795', 'EINECS 202-854-1', 'benzylarnine', 'bezylamine', 'BRN 0741984', 'AI3-15299', 'aminomethylbenzene', 'N-(phenylmethyl)amine', 'BnNH2', 'NH2Bn', 'QuadraPure(TM) BZA', 'Bzl-NH2', 'Benzenemethanamine, 9CI', 'Benzylamine on polystyrene', 'Benzylamine, reagent grade', 'DSSTox_CID_1839', 'SCHEMBL373', 'ACMC-20aj53', 'Epitope ID:141489', 'EC 202-854-1', 'QuadraPure(TM) Benzylamine', 'DSSTox_RID_76359', 'NCIOpen2_007746', 'DSSTox_GSID_21839', '4-12-00-02155 (Beilstein Handbook Reference)', 'laquo Omegaraquo -aminotoluene', 'Benzylamine, analytical standard', 'DTXSID5021839', 'BDBM10999', 'NSC8046', 'TETRACYCLOHEXYLORTHOSILICATE', 'NSC-8046', 'STR00195', 'ZINC6096244', 'Benzylamine, ReagentPlus(R), 99%', 'Tox21_300933', 'MFCD00130502', 'MFCD00135579', 'MFCD08561140', 'STL115534', 'AKOS000119096', 'QuadraPure BZA, 400-1100 micron', 'DB02464', 'EBD2211112', 'MCULE-6894874255', 'NCGC00166029-01', 'NCGC00166029-02', 'NCGC00254835-01', 'CAS-100-46-9', 'B0406', 'FT-0622834', 'FT-0622836', 'AZ0001-0093', 'Benzylamine, for GC derivatization, >=99.0%', '13743-EP2269992A1', '13743-EP2270010A1', '13743-EP2272517A1', '13743-EP2277848A1', '13743-EP2277881A1', '13743-EP2280001A1', '13743-EP2280008A2', '13743-EP2281563A1', '13743-EP2281818A1', '13743-EP2284171A1', '13743-EP2284172A1', '13743-EP2284174A1', '13743-EP2287141A1', '13743-EP2287163A1', '13743-EP2289891A2', '13743-EP2289892A1', '13743-EP2292593A2', '13743-EP2295406A1', '13743-EP2295414A1', '13743-EP2295420A1', '13743-EP2295429A1', '13743-EP2295432A1', '13743-EP2295437A1', '13743-EP2298729A1', '13743-EP2298775A1', '13743-EP2298779A1', '13743-EP2305250A1', '13743-EP2305651A1', '13743-EP2305654A1', '13743-EP2305666A1', '13743-EP2305678A1', '13743-EP2305687A1', '13743-EP2305695A2', '13743-EP2305696A2', '13743-EP2305697A2', '13743-EP2305698A2', '13743-EP2308510A1', '13743-EP2308562A2', '13743-EP2308812A2', '13743-EP2308838A1', '13743-EP2308841A2', '13743-EP2308851A1', '13743-EP2308854A1', '13743-EP2308867A2', '13743-EP2308870A2', '13743-EP2311804A2', '13743-EP2311815A1', '13743-EP2311837A1', '13743-EP2314593A1', '13743-EP2316836A1', '13743-EP2371810A1', '13743-EP2371811A2', '13743-EP2380871A1', '13925-EP2295437A1', '13925-EP2298775A1', '13925-EP2298776A1', '13925-EP2308833A2', '13925-EP2311837A1', '13925-EP2314586A1', '13925-EP2316836A1', 'Benzylamine, purified by redistillation, >=99.5%', 'Q424000', 'BRD-K76133116-001-01-2', 'Z54748260', 'F2190-0388', '3F830B2A-ABAA-4E26-971C-53B1C7485954', 'Aminomethyl polystyrene (160-200 ?m, 0.8-1.3 mmol/g)', 'Aminomethyl polystyrene (rigid, macroporous 200-400?m, 2-3.5 mmol/g)', 'Aminomethyl polystyrene resin cross-linked with 1% DVB (200-400mesh) (2.0-3.0mmol/g)', 'Poly(styrene-divinylbenzene), aminomethylated, 1% cross-linked, 100-200 mesh', 'QuadraPure(R) BZA, 400-1100 mum, extent of labeling: 20 mg/g loading, macroporous']
129;2-methyl-N-(2-methylpropyl)propan-1-amine;1;C8H19N;129.24;CC(C)CNCC(C)C;8085;;;;;;;-3.7;-4.8;-6.4;;;17.9;;['Diisobutylamine', '110-96-3', '1-Propanamine, 2-methyl-N-(2-methylpropyl)-', 'bis(2-methylpropyl)amine', 'Amine, diisobutyl-', 'Bis(beta-methylpropyl)amine', 'di-isobutylamine', 'N,N-BIS(2-METHYLPROPYL)AMINE', 'UNII-T18Y0A819S', 'diisobutyl-amine', 'HSDB 5543', 'Di(-2-methylpropyl)amine', '2-methyl-N-(2-methylpropyl)propan-1-amine', 'EINECS 203-819-3', 'UN2361', '(i-C4H9)2NH', 'BRN 1209251', 'AI3-15330', '2-Methyl-N-(2-methylpropyl)-1-propanamine', 'T18Y0A819S', 'N-isobutyl-2-methylpropan-1-amine', 'MFCD00008930', 'disec-butylamine', 'CCRIS 6232', 'DI-ISO-BUTYLAMINE', 'diisobutylamin', 'di-i-butylamine', 'diisobutyl amine', 'N,N-diisobutylamine', 'Diisobutylamine, 99%', 'DSSTox_CID_5079', 'DSSTox_RID_77655', 'DSSTox_GSID_25079', 'SCHEMBL64203', 'ACMC-20997v', 'CHEMBL3187581', 'DTXSID5025079', 'STR04304', 'ZINC2041067', 'Tox21_200177', '8013AF', 'STL183306', 'AKOS000227246', 'N-Isobutyl-2-methyl-1-propanamine #', 'MCULE-7558581759', 'UN 2361', 'NCGC00248551-01', 'NCGC00257731-01', 'CAS-110-96-3', 'D0614', 'FT-0624984', 'Diisobutylamine [UN2361]  [Flammable liquid]', 'J-002492', 'Q23978431', 'Z90514122', 'F2190-0306']
130;N-butylbutan-1-amine;1;C8H19N;129.24;CCCCNCCCC;8148;;;;;;;-3.9;-5.0;-6.6;;;18.3;;['DIBUTYLAMINE', '111-92-2', 'Di-n-butylamine', '1-Butanamine, N-butyl-', 'N-Butyl-1-butanamine', 'Dibutilamina', 'N-butylbutan-1-amine', 'n-Dibutylamine', 'Di-(n-butyl)amine', 'dibutyl amine', 'DIBUTYL-AMINE', 'di-Normal-butylamine', 'UN2248', 'HSDB 310', 'UNII-2194M2LA21', 'di-1-butylamine', 'AI3-15329', 'AI3-52649', 'di(n-butyl)amine', 'di-n-butyl amine', 'N,N-Dibutylamine', 'EINECS 203-921-8', '(n-C4H9)2NH', 'BRN 0506001', '2194M2LA21', 'dibutylamin', 'Dibutilamina [Romanian]', 'butanamine,n-butyl', 'Butylamine, di-N-', 'MFCD00009429', 'Dibutylamine, 99%', 'N,N-Dibutylamine #', 'N,N-di-n-butylamine', 'N, N-Di-n-butylamin', 'Dibutylamine, >=98%', 'ACMC-1C9TU', 'DSSTox_CID_4952', 'EC 203-921-8', 'SCHEMBL2532', 'Dibutylamine, >=99.5%', 'DSSTox_RID_77595', 'DSSTox_GSID_24952', 'CHEMBL3184528', 'DTXSID7024952', 'AMY21922', 'STR01268', 'ZINC1666746', 'Tox21_200418', 'BBL002913', 'STK380649', 'AKOS000118844', 'MCULE-6002936904', 'UN 2248', 'NCGC00248600-01', 'NCGC00257972-01', 'CAS-111-92-2', 'Di-n-butylamine [UN2248]  [Corrosive]', 'Dibutylamine, puriss., >=99.0% (GC)', 'Dibutylamine, SAJ first grade, >=98.0%', 'D0218', 'FT-0625169', '30339-EP2301934A1', '30339-EP2311464A1', '30339-EP2371808A1', '111859-EP2295438A1', '111859-EP2298761A1', 'Q1209336', 'W-108664', 'F2190-0305', 'Z102766286']
131;ethanamine;1;C2H7N;45.08;CCN;6341;210.7;;;-78.9;-70.5;;-3.2;-3.5;-5.2;;;18.4;11;['Ethanamine', 'ETHYLAMINE', 'Monoethylamine', 'Aminoethane', '75-04-7', '1-Aminoethane', 'Ethyl amine', 'Aethylamine', 'Etilamina', 'Ethylamine solution', 'Ethylamin', 'Etyloamina', 'Etilamina [Italian]', 'Etyloamina [Polish]', 'Ethamine', 'Aethylamine [German]', 'UNII-YG6MGA6AT5', 'YG6MGA6AT5', 'C2H5NH2', 'CHEBI:15862', 'Ethylamine, 97%', 'MFCD00008160', 'CCRIS 6261', 'HSDB 803', 'EINECS 200-834-7', 'UN1036', 'UN2270', 'ethaneamine', 'ethyamine', 'monoethyl amine', 'ethane amine', 'ethyl-amine', 'N-ethylamine', 'AI3-24228', '2-ethylamine', 'N-ethyl amine', 'eth-2-ylamine', 'Ethylamine solution (72% or less)', 'Ethylamine, anhydrous', 'EtNH2', 'H2NEt', 'Ethylamine, 99.0%', 'MONO ETHYL AMINE', 'ACMC-1BJGT', 'Ethylamine, 2M in THF', 'DEA Code 8678', 'CH3CH2NH2', 'EC 200-834-7', 'Monoethylamine Reagent Grade', 'UN 2270 (Salt/Mix)', 'CHEMBL14449', 'DTXSID8025678', 'Ethylamine solution, 70% in H2O', 'Ethylamine, anhydrous, >=99.0%', 'Ethylamine, anhydrous, >=99.5%', 'STR00902', 'Ethylamine solution, 2.0 M in THF', 'AKOS000119886', 'MCULE-5999638632', 'UN 1036', 'Ethylamine [UN1036]  [Flammable gas]', 'Ethylamine solution, 2.0 M in methanol', 'Ethylamine solution, 70 wt. % in H2O', 'Ethylamine solution, purum, 70% in H2O', 'Ethylamine, purum, anhydrous, >=99.0%', 'E0055', 'E0246', 'E0531', 'E0817', 'E0842', 'Ethylamine solution, 66.0-72.0% in H2O', 'Ethylamine solution, for synthesis, 70-72%', 'FT-0626281', 'Ethylamine solution, 70 wt. % in H2O, CP', '4466-EP2269977A2', '4466-EP2269999A1', '4466-EP2270010A1', '4466-EP2272517A1', '4466-EP2272841A1', '4466-EP2275404A1', '4466-EP2275412A1', '4466-EP2277858A1', '4466-EP2277880A1', '4466-EP2280010A2', '4466-EP2281812A1', '4466-EP2284157A1', '4466-EP2284174A1', '4466-EP2287141A1', '4466-EP2287152A2', '4466-EP2287163A1', '4466-EP2289883A1', '4466-EP2289891A2', '4466-EP2289894A2', '4466-EP2292592A1', '4466-EP2292593A2', '4466-EP2292597A1', '4466-EP2292610A1', '4466-EP2292613A1', '4466-EP2295437A1', '4466-EP2295438A1', '4466-EP2298731A1', '4466-EP2298734A2', '4466-EP2298742A1', '4466-EP2298743A1', '4466-EP2298746A1', '4466-EP2298747A1', '4466-EP2298761A1', '4466-EP2298775A1', '4466-EP2301922A1', '4466-EP2301933A1', '4466-EP2305248A1', '4466-EP2305250A1', '4466-EP2305641A1', '4466-EP2305673A1', '4466-EP2305678A1', '4466-EP2305679A1', '4466-EP2305687A1', '4466-EP2308812A2', '4466-EP2308828A2', '4466-EP2308838A1', '4466-EP2308840A1', '4466-EP2308861A1', '4466-EP2308869A1', '4466-EP2308873A1', '4466-EP2308875A1', '4466-EP2311464A1', '4466-EP2311804A2', '4466-EP2311806A2', '4466-EP2311818A1', '4466-EP2311827A1', '4466-EP2311830A1', '4466-EP2311831A1', '4466-EP2311834A1', '4466-EP2314586A1', '4466-EP2316470A2', '4466-EP2316832A1', '4466-EP2316833A1', '4466-EP2316836A1', '4466-EP2377845A1', '4466-EP2377849A2', 'C00797', '56743-EP2275408A1', '56743-EP2295436A1', '56743-EP2298305A1', '56743-EP2298769A1', '56743-EP2298773A1', '56743-EP2308878A2', 'Q411119', 'Ethylamine, aqueous solution with not <50% but not >70% ethylamine', 'QuadraPure(R) EDA, 500-800 mum, extent of labeling: 1.5-2.0 mmol/g loading, macroporous', 'Ethylamine, aqueous solution with not <50% but not >70% ethylamine [UN2270]  [Flammable liquid]']