Number;IUPAC_name;Charge;Molecular Formula;Molecular Weight [g/mol];Isomeric SMILES;Pubchem CID;GasPhaseAcidity_B2PLYP//DLPNO-CCSD(T) [kcal/mol];GSolv_Ion_Water [kcal/mol];GSolv_Ion_DMSO [kcal/mol];GSolv_Ion_Acetonitrile [kcal/mol];GSolv_Ion_MeOH [kcal/mol];Gsolv_Neutral_Water_exp [kcal/mol];Gsolv_Neutral_DMSO_TZVPD-Fine [kcal/mol];Gsolv_Neutral_Acetonitrile_TZVPD-Fine [kcal/mol];Gsolv_Neutral_MeOH_TZVPD-Fine [kcal/mol];pka_water;pka_DMSO;pka_Acetonitrile;pka_MeOH;Synonyms
15;aniline;1;C6H7N;93.13;C1=CC=C(C=C1)N;6115;203.2;-69.6;-71.7;-80.6;-74.1;-5.5;-8.9;-8.1;-8.0;4.6;3.6;10.7;6.1;"['ANILINE', 'Benzenamine', '62-53-3', 'Phenylamine', 'Aminobenzene', 'Aminophen', 'Arylamine', 'Kyanol', 'Anilin', 'Cyanol', 'Benzeneamine', 'Benzidam', 'Krystallin', 'Anyvim', 'Aniline oil', 'Blue Oil', 'Anilina', 'C.I. Oxidation Base 1', ""Huile D'aniline"", 'Rcra waste number U012', 'C.I. 76000', 'Aniline reagent', 'UNII-SIR7XX2F1K', 'NCI-C03736', 'UN 1547', 'CHEBI:17296', 'MFCD00007629', 'SIR7XX2F1K', 'Benzene, amino', 'Anilin [Czech]', 'CI Oxidation Base 1', 'Caswell No. 051C', ""Huile d'aniline [French]"", 'HSDB 43', 'Phenyleneamine', ""D'aniline"", 'RCRA waste no. U012', 'Anilina [Italian, Polish]', 'CCRIS 44', 'Aniline and homologs', 'Aniline (and salts)', 'Aniline and homologues', 'Aniline oil, phenylamine', 'EINECS 200-539-3', 'UN1547', 'EPA Pesticide Chemical Code 251400', 'benzenaminium', 'cyanole', 'CI 76000', 'BIDD:ER0581', 'phenyl amine', 'phenyl-amine', 'AI3-03053', '8-aniline', 'Benzene, amino-', 'Fentanyl impurity F', '2-bromobenzylchloride', 'Aniline-[13C]', 'PhNH2', 'DSSTox_CID_90', 'ACMC-1AZO2', 'CHEMBL538', 'Epitope ID:117704', 'EC 200-539-3', 'Aniline, analytical standard', 'DSSTox_RID_75359', 'Aniline, AR, >=99%', 'Aniline, LR, >=99%', 'DSSTox_GSID_20090', 'C6H5NH2', 'DTXSID8020090', 'BDBM92572', 'Trimethoprim specified impurity K', 'Aniline, ReagentPlus(R), 99%', 'BENZENE,AMINO  (ANILINE)', 'Aniline [UN1547]  [Poison]', 'AMY11081', 'STR00216', 'Aniline, ACS reagent, >=99.5%', 'Tox21_200345', 'Aniline 10 microg/mL in Cyclohexane', 'STK301792', 'ZINC17886255', 'AKOS000268796', 'Aniline 100 microg/mL in Cyclohexane', 'DB06728', 'MCULE-9347486445', 'Aniline, ASTM, ACS reagent, 99.5%', 'Aniline, SAJ first grade, >=99.0%', 'CAS-62-53-3', 'Aniline, JIS special grade, >=99.0%', 'Aniline, p.a., ACS reagent, 99.0%', 'NCGC00091297-01', 'NCGC00091297-02', 'NCGC00091297-03', 'NCGC00257899-01', 'BP-12047', 'S667', 'Aniline, PESTANAL(R), analytical standard', 'DB-013441', 'A0463', 'FT-0622394', 'FT-0662220', 'FT-0696319', '9622-EP2269990A1', '9622-EP2270011A1', '9622-EP2272817A1', '9622-EP2272822A1', '9622-EP2272849A1', '9622-EP2275102A1', '9622-EP2275403A1', '9622-EP2275413A1', '9622-EP2276085A1', '9622-EP2277865A1', '9622-EP2277880A1', '9622-EP2277881A1', '9622-EP2279750A1', '9622-EP2280001A1', '9622-EP2280004A1', '9622-EP2280005A1', '9622-EP2280012A2', '9622-EP2280020A1', '9622-EP2280021A1', '9622-EP2281817A1', '9622-EP2281818A1', '9622-EP2284157A1', '9622-EP2284161A1', '9622-EP2284174A1', '9622-EP2284920A1', '9622-EP2287152A2', '9622-EP2287156A1', '9622-EP2289884A1', '9622-EP2289893A1', '9622-EP2289894A2', '9622-EP2292593A2', '9622-EP2292597A1', '9622-EP2292610A1', '9622-EP2295053A1', '9622-EP2295402A2', '9622-EP2295409A1', '9622-EP2295411A1', '9622-EP2295418A1', '9622-EP2295421A1', '9622-EP2295429A1', '9622-EP2295439A1', '9622-EP2295503A1', '9622-EP2298312A1', '9622-EP2298743A1', '9622-EP2298749A1', '9622-EP2298768A1', '9622-EP2298770A1', '9622-EP2298776A1', '9622-EP2298828A1', '9622-EP2301920A1', '9622-EP2301923A1', '9622-EP2301928A1', '9622-EP2301930A1', '9622-EP2301939A1', '9622-EP2301983A1', '9622-EP2302132A1', '9622-EP2305652A2', '9622-EP2305687A1', '9622-EP2305769A2', '9622-EP2305808A1', '9622-EP2308833A2', '9622-EP2308839A1', '9622-EP2308840A1', '9622-EP2308848A1', '9622-EP2308851A1', '9622-EP2308858A1', '9622-EP2308861A1', '9622-EP2308872A1', '9622-EP2308873A1', '9622-EP2308877A1', '9622-EP2308880A1', '9622-EP2311802A1', '9622-EP2311803A1', '9622-EP2311804A2', '9622-EP2311806A2', '9622-EP2311807A1', '9622-EP2311808A1', '9622-EP2311816A1', '9622-EP2311817A1', '9622-EP2311818A1', '9622-EP2311825A1', '9622-EP2311829A1', '9622-EP2311830A1', '9622-EP2314558A1', '9622-EP2314576A1', '9622-EP2314590A1', '9622-EP2314593A1', '9622-EP2315502A1', '9622-EP2316452A1', '9622-EP2316829A1', '9622-EP2316831A1', '9622-EP2371810A1', '9622-EP2371812A1', '9622-EP2372804A1', '9622-EP2378585A1', 'C00292', '12588-EP2272517A1', '12588-EP2272813A2', '12588-EP2275395A2', '12588-EP2275409A1', '12588-EP2275469A1', '12588-EP2276085A1', '12588-EP2284920A1', '12588-EP2287940A1', '12588-EP2289965A1', '12588-EP2292586A2', '12588-EP2292601A1', '12588-EP2292602A1', '12588-EP2292603A1', '12588-EP2292618A1', '12588-EP2293650A1', '12588-EP2295402A2', '12588-EP2295421A1', '12588-EP2298729A1', '12588-EP2298737A1', '12588-EP2298739A1', '12588-EP2298740A1', '12588-EP2298741A1', '12588-EP2298771A2', '12588-EP2298828A1', '12588-EP2299509A1', '12588-EP2299510A1', '12588-EP2301920A1', '12588-EP2301936A1', '12588-EP2301983A1', '12588-EP2305769A2', '12588-EP2308926A1', '12588-EP2309564A1', '12588-EP2311825A1', '12588-EP2311826A2', '12588-EP2314558A1', '12588-EP2315502A1', '12588-EP2316831A1', '12588-EP2371810A1', '12588-EP2371812A1', '12588-EP2371813A1', '12588-EP2372804A1', '12588-EP2378585A1', '85560-EP2281861A2', '85560-EP2298749A1', '85560-EP2305657A2', '147630-EP2289877A1', 'A833829', 'Q186414', 'SR-01000944923', 'J-519591', 'SR-01000944923-1', 'Q27121173', 'F2190-0417', 'Aniline, United States Pharmacopeia (USP) Reference Standard']"
16;2-methylaniline;1;C7H9N;107.15;CC1=CC=CC=C1N;7242;205.7;-67.0;;;-71.6;-5.6;-8.9;-8.3;-8.1;4.5;;;6;['o-Toluidine', '2-Methylaniline', '95-53-4', '2-Toluidine', 'o-Tolylamine', '2-Methylbenzenamine', 'o-Methylaniline', '2-AMINOTOLUENE', 'ortho-toluidine', 'Benzenamine, 2-methyl-', 'o-Aminotoluene', 'o-Methylbenzenamine', '2-Methyl-1-aminobenzene', '1-Amino-2-methylbenzene', '2-Amino-1-methylbenzene', 'o-Toluidyna', 'o-Toluidin', '1-Methyl-2-aminobenzene', 'ortho Toluidine', 'Aniline, 2-methyl-', '2-Methylbenzamine', 'RCRA waste number U328', '2-methyl-aniline', 'o-Toluidin [Czech]', 'o-Toluidyna [Polish]', 'o-Toluide', 'UNII-B635MZ0ZLU', 'NSC 15348', 'C.I. 37077', 'MFCD00007730', 'B635MZ0ZLU', 'DTXSID1026164', 'CHEBI:66892', 'O-Toluidin (CZECH)', 'O-Toluidyna (POLISH)', 'DSSTox_CID_6164', 'DSSTox_RID_78041', 'DSSTox_GSID_26164', 'CAS-95-53-4', 'CCRIS 597', 'HSDB 2042', 'EINECS 202-429-0', 'RCRA waste no. U328', 'Benzenamine, 2-methyl-, hydrochloride (1:1)', 'ortho-tolylamine', 'AI3-24383', 'o-tolyl-amine', '2-amino toluene', '2 -methylaniline', '2-methyl aniline', 'O-Toluidine Pure', '2-(methyl)aniline', '51V', 'o-Toluidine, liquid', '2-methyl-benzenamine', 'o-Toluidine, 98%', 'o-Toluidine, >=99%', 'ACMC-209rz8', 'O-TOLUIDINE(1%)', 'UN 1708 (Related)', 'EC 202-429-0', 'CHEMBL1381', 'WLN: ZR B1', 'SCHEMBL15789', 'o-Toluidine, liquid or solid', 'MLS002415766', '2-Aminotoluene (o-toluidine)', 'BIDD:ER0679', 'o-Toluidine, analytical standard', '2-Aminotoluene, 2-Methylaniline', 'O-Toluidine (ACD/Name 4.0)', 'o-Toluidine, p.a., 99.5%', 'TIMTEC-BB SBB028141', '2-Methylbenzenamine (o-Toluidine)', 'HMS3039B11', 'LABOTEST-BB LTBB000469', 'BCP17522', 'NSC15348', 'STR00213', 'ZINC1706910', 'AKOS BBS-00004267', 'Tox21_201256', 'Tox21_300179', 'BBL011598', 'NSC-15348', 'STL163331', '2-Methylphenylamine (ACD/Name 4.0)', 'AKOS000119109', 'AM87484', 'AS01510', 'MCULE-2695214373', 'o-Toluidine 500 microg/mL in Methanol', 'NCGC00091368-01', 'NCGC00091368-02', 'NCGC00091368-03', 'NCGC00091368-04', 'NCGC00253986-01', 'NCGC00258808-01', 'o-Toluidine 10 microg/mL in Cyclohexane', 'BP-21341', 'SMR001370921', 'o-Toluidine 100 microg/mL in Cyclohexane', 'FT-0675282', 'o-Toluidine, SAJ special grade, >=99.0%', 'T0299', 'o-Toluidine, purum p.a., >=99.5% (GC)', '3720-EP2272972A1', '3720-EP2272973A1', '3720-EP2275416A1', '3720-EP2277872A1', '3720-EP2289897A1', '3720-EP2292589A1', '3720-EP2295418A1', '3720-EP2298753A1', '3720-EP2311804A2', '9747-EP2275404A1', '9747-EP2287155A1', '9747-EP2308872A1', '9747-EP2316829A1', 'C90102', '139416-EP2270008A1', '139416-EP2292617A1', 'Q311695', 'o-Toluidine, liquid or solid [UN1708]  [Poison]', 'Z57127943', 'F2190-0418', 'o-Toluidine solution, 2000 mug/mL in methanol, analytical standard', 'o-Toluidine solution, 0.6 M in glacial acetic acid, contains thiourea as stabilizer']
17;3-methylaniline;1;C7H9N;107.15;CC1=CC(=CC=C1)N;7934;206.3;-66.8;;;-71.4;-5.7;-9.0;-8.4;-8.3;4.7;;;6.1;['m-Toluidine', '3-Methylaniline', '108-44-1', '3-Toluidine', 'Benzenamine, 3-methyl-', '3-AMINOTOLUENE', 'm-Methylaniline', 'm-Toluidin', 'm-Tolylamine', 'm-Aminotoluene', '3-Methylbenzenamine', 'm-Methylbenzenamine', '3-Aminophenylmethane', '3-Amino-1-methylbenzene', '3-Aminotoluen', 'Aniline, 3-methyl-', '1-Amino-3-methylbenzene', 'm-Toluidin [Czech]', 'meta-toluidine', 'm-Toluidyna [Polish]', 'NSC 15349', 'UNII-006FKQ96T3', 'MFCD00007808', '006FKQ96T3', 'Benzenamine, 3-methyl-, homopolymer', 'm-Toluidine, 99%', 'DSSTox_CID_6792', 'DSSTox_RID_78215', 'DSSTox_GSID_26792', '3-Aminotoluen [Czech]', 'm-Toluidyna', '3-methylphenylamine', '104318-58-3', 'CAS-108-44-1', 'CCRIS 4325', 'HSDB 2043', 'EINECS 203-583-1', 'BRN 0635944', 'metatoluidine', 'meta toluidine', '3-methylalanine', 'AI3-19859', 'm-tolyl-amine', 'meta-methylaniline', '3-methyl aniline', '3-methyl-aniline', '3-methyl-benzamine', '3-(methyl)aniline', '3-methyl-phenylamine', 'ACMC-1BRAW', 'EC 203-583-1', 'WLN: ZR C1', 'SCHEMBL11789', 'm-Toluidine, liquid or solid', '4-12-00-01813 (Beilstein Handbook Reference)', 'CHEMBL3182179', 'DTXSID1026792', 'm-Toluidine, analytical standard', 'BCP15285', 'NSC15349', 'ZINC3861040', 'Tox21_201265', 'Tox21_300568', 'BBL002474', 'NSC-15349', 'STK387127', 'AKOS000119100', 'AS06930', 'MCULE-1279166450', 'PS-9299', 'NCGC00091601-02', 'NCGC00091601-03', 'NCGC00254415-01', 'NCGC00258817-01', 'm-Toluidine 100 microg/mL in Cyclohexane', 'FT-0616412', 'T0298', 'm-Toluidine, liquid or solid [UN1708]  [Poison]', 'Q1880736', 'W-108717', 'Z57127904', 'F2190-0419']
18;4-methylaniline;1;C7H9N;107.15;CC1=CC=C(C=C1)N;7813;;;;;;-5.6;-8.9;-8.3;-8.2;5.1;;11.3;6.6;"['p-Toluidine', '4-Methylaniline', '106-49-0', '4-Toluidine', '4-Methylbenzenamine', 'p-Tolylamine', 'Benzenamine, 4-methyl-', '4-AMINOTOLUENE', 'p-Methylaniline', 'p-Toluidin', 'p-Aminotoluene', 'p-Methylbenzenamine', '1-Amino-4-methylbenzene', 'Naphtol AS-KG', 'Naphtol AS-KGLL', 'Aniline, p-methyl-', '4-Aminotoluen', '4-Amino-1-methylbenzene', 'para-toluidine', 'RCRA waste number U353', 'C.I. Azoic Coupling Component 107', 'NSC 15350', 'UNII-I1D0KL7I4U', 'C.I. 37107', 'I1D0KL7I4U', 'CHEMBL58521', '26915-12-8', 'DTXSID6021872', 'CHEBI:37825', 'Benzenamine, 4-methyl-, homopolymer', 'AZOIC COUPLING COMPONENT 107', 'MFCD00007906', 'DSSTox_CID_1872', 'Toluidine, p-', 'DSSTox_RID_76377', 'DSSTox_GSID_21872', '4-methylphenylamine', '12221-03-3', 'p-Toluidin [Czech]', 'p-Toluidyna [Polish]', '4-Aminotoluen [Czech]', 'p-Toluidyna', '76642-19-8', 'CAS-106-49-0', 'CCRIS 598', 'HSDB 2044', 'CI Azoic Coupling Component 107', 'Benzenamine, ar-methyl-', 'EINECS 203-403-1', 'RCRA waste no. U353', 'paratoluidine', 'Benzenamine, 4-methyl-, hydrochloride (1:1)', 'CI 37107', '4methylaniline', 'AI3-19858', 'p-tolyl-amine', '4-tolylamine', '4-amino-toluene', '4-aminotoluene;', 'para-methylaniline', '4-methyl aniline', '4-methyl-aniline', '4-methyl-phenylamine', '4-Toluidine-[d7]', 'p-Toluidine, 99%', 'ACMC-1BUTV', 'p-Toluidine, 99.6%', 'EC 203-403-1', 'P-Toluidine/4-Aminotoluene', 'WLN: ZR D1', 'SCHEMBL11887', 'p-Toluidine, liquid or solid', '4-Aminotoluene, 4-Methylaniline', 'p-Toluidine, for synthesis, 99%', 'NSC15350', 'ZINC4774057', 'Tox21_202142', 'Tox21_300168', 'BDBM50008562', 'NSC-15350', 'STL137776', 'AKOS000119134', 'AM10491', 'AS06931', 'EBD2205419', 'GS-6708', 'MCULE-1635792225', 'p-Toluidine 100 microg/mL in Methanol', 'NCGC00247917-01', 'NCGC00247917-02', 'NCGC00247917-03', 'NCGC00254002-01', 'NCGC00259691-01', 'BP-11946', 'DB-024354', 'FT-0654835', 'FT-0675283', 'FT-0695721', 'p-Toluidine, SAJ special grade, >=99.0%', 'T0300', 'AZ0001-0112', '79533-EP2272972A1', '79533-EP2272973A1', '79533-EP2275403A1', '79533-EP2277872A1', '79533-EP2284157A1', '79533-EP2305695A2', '79533-EP2305696A2', '79533-EP2305697A2', '79533-EP2305698A2', '142395-EP2280001A1', '142395-EP2281563A1', '142395-EP2292593A2', 'J-001600', 'p-Toluidine, liquid or solid [UN1708]  [Poison]', 'Q2043499', 'F2190-0420', 'P-TOLUIDINE, United States Pharmacopeia (USP) Reference Standard', 'p-Toluidine, for spectrophotometric det. of Au, Tl(III), W, >=99.0%', '4MN']"
19;benzene-1,3-diamine;1;C6H8N2;108.14;C1=CC(=CC(=C1)N)N;7935;;;;;;-9.9;-12.6;-11.3;-11.5;5;;;;['m-Phenylenediamine', 'benzene-1,3-diamine', '108-45-2', '1,3-Phenylenediamine', '1,3-BENZENEDIAMINE', '1,3-Diaminobenzene', 'meta-Phenylenediamine', 'm-Diaminobenzene', '3-Aminoaniline', 'm-Aminoaniline', '3-Phenylenediamine', 'Metaphenylenediamine', 'm-Benzenediamine', 'Developer C', 'Developer H', 'Developer M', 'Direct Brown BR', 'Direct Brown GG', 'Developer 11', 'm-Fenylendiamin', 'C.I. Developer 11', 'm-Phenylene diamine', '1,3-phenylene diamine', 'APCO 2330', 'NSC 4776', 'UNII-OE624J2447', 'MFCD00007799', '1,3-DIAMINO-BENZENE', 'CHEBI:8092', 'DTXSID4021137', 'OE624J2447', 'C.I. 76025', 'DSSTox_CID_1137', 'meta-Aminoaniline', 'DSSTox_RID_75968', 'meta-Benzenediamine', 'meta-Diaminobenzene', 'DSSTox_GSID_21137', 'CI Developer 11', 'm-Fenylendiamin [Czech]', 'Benzene, 1,3-diamino-', 'CAS-108-45-2', 'CCRIS 1236', 'HSDB 5384', 'Phenylenediamine, meta-', 'EINECS 203-584-7', '1,3-Benzenediamine, hydrochloride (1:2)', 'BRN 0471357', 'AI3-52607', 'm-phenylene-diamine', '1,3-diaminobenzol', 'Phenylenediamine, m', 'metaphenylene diamine', '1,3-phenylendiamine', 'm - Phenylenediamine', '1,3 phenylenediamine', 'meta-phenylene diamine', 'Phenylenediamine, meta', '(3-aminophenyl)-amine', '1,3 phenylene diamine', 'm-Phenylenediamine, flake', 'ACMC-1BU4X', 'WLN: ZR CZ', 'UN-1673 (Related)', 'EC 203-584-7', 'SCHEMBL16054', '4-13-00-00079 (Beilstein Handbook Reference)', 'CHEMBL1595914', 'NSC4776', 'm-Phenylenediamine, flakes, 99%', 'ZINC164650', 'ACT07283', 'AMY40788', 'NSC-4776', 'Tox21_202106', 'Tox21_300490', 'STL194287', 'AKOS000119108', 'AS06865', 'GS-6709', 'MCULE-2875685579', 'NCGC00091145-01', 'NCGC00091145-02', 'NCGC00091145-03', 'NCGC00091145-04', 'NCGC00254260-01', 'NCGC00259655-01', 'AC-11132', 'H423', 'm-Phenylenediamine, purum, >=99.0% (T)', 'FT-0606740', 'FT-0673748', 'P1892', 'P1911', 'C02454', 'D92171', 'm-Phenylenediamine, technical, >=98.0% (NT)', '104091-EP2295415A1', '104091-EP2302015A1', '104091-EP2374895A1', 'Q2410205', 'W-108716', 'm-Phenylenediamine [UN1673]  [Keep away from food]', 'F0001-0170', 'UNII-TJX894Z2PK component WZCQRUWWHSTZEM-UHFFFAOYSA-N']
20;N-methylaniline;1;C7H9N;107.15;CNC1=CC=CC=C1;7515;;;;;;-4.7;-8.1;-7.8;-7.5;4.9;;;5.5;['N-METHYLANILINE', '100-61-8', 'Methylaniline', 'Monomethylaniline', 'N-Methyl aniline', 'Benzenamine, N-methyl-', 'Methylphenylamine', 'N-Methylbenzenamine', 'N-Monomethylaniline', 'N-Methylaminobenzene', '(Methylamino)benzene', 'Aniline, N-methyl-', 'Anilinomethane', 'N-Methylphenylamine', 'N-Phenylmethylamine', 'Monomethyl aniline', 'Benzeneamine, N-methyl-', 'methyl-phenyl-amine', 'NSC 3502', 'UNII-TH45GK410O', 'N-Methyl-N-phenylamine', 'TH45GK410O', 'CHEBI:15733', 'CCRIS 2870', 'HSDB 1654', 'EINECS 202-870-9', 'UN2294', 'N-metylaniline', 'N-Methlaniline', 'AI3-19498', 'N-Methylanlne', 'N-methyl-aniline', 'methyl(phenyl)amine', 'methyl-phenyl amine', 'n-methylphenyl amine', 'N-methyl phenylamine', 'N-methyl-benzenamine', 'MFCD00008283', 'N-Methylanilinium ion', 'N-methyl-phenyl-amine', 'ANILINE,N-METHYL', 'N-Methylaniline, 98%', 'DSSTox_CID_1841', 'N-Methyl-N-phenylamine #', 'EC 202-870-9', 'N-Methylaniline, >=99%', 'SCHEMBL4454', 'WLN: 1MR', 'ACMC-1C52D', 'DSSTox_RID_76360', 'DSSTox_GSID_21841', 'MLS002415757', 'BIDD:ER0250', 'BIDD:GT0230', 'CHEMBL170781', 'SCHEMBL1415355', 'DTXSID9021841', 'NSC3502', 'HMS3039I05', 'ZINC901343', 'NSC-3502', 'N-Methylaniline, analytical standard', 'Tox21_200298', 'STL183283', 'AKOS000119086', 'AM10675', 'MCULE-6046773954', 'UN 2294', 'N-Methylaniline [UN2294]  [Poison]', 'NCGC00091265-01', 'NCGC00091265-02', 'NCGC00257852-01', 'AS-12865', 'CAS-100-61-8', 'SMR001370917', 'N-Methylaniline, purum, >=98.0% (GC)', 'FT-0652068', 'M0147', 'C02299', '69429-EP2277848A1', '69429-EP2284159A1', '69429-EP2292593A2', '69429-EP2308861A1', 'J-000182', 'J-523671', 'Q1959597', 'F2190-0405', 'Z1258948213', '1MR']
21;N-ethylaniline;1;C8H11N;121.18;CCNC1=CC=CC=C1;7670;214.3;-58.3;;;;-4.6;-8.1;-8.1;-7.8;5.1;;;;['N-ETHYLANILINE', '103-69-5', 'Benzenamine, N-ethyl-', 'Ethylaniline', 'N-Ethyl aniline', 'Anilinoethane', 'N-Ethylbenzenamine', 'Ethylphenylamine', 'Aniline, N-ethyl-', 'N-Ethyl-N-phenylamine', 'N-Ethylaminobenzene', 'Aethylanilin', 'N-Ethyl-aniline', 'NSC 8736', 'ethyl-phenyl-amine', 'UNII-7E45L4I2PS', '7E45L4I2PS', 'CHEBI:34870', 'Benzenamine, N-ethyl-, homopolymer', 'MFCD00009025', 'DSSTox_CID_5271', 'N-Ethylbenzenamino', 'DSSTox_RID_77721', 'DSSTox_GSID_25271', 'N-Ethylbenzeneamino', 'Aethylanilin [German]', '88374-64-5', 'CAS-103-69-5', 'CCRIS 4641', 'HSDB 5354', 'EINECS 203-135-5', 'UN2272', 'BRN 0507468', 'ethylanilines', 'ethyl aniline', 'Monoethylaniline', 'Ethyl-aniline', 'AI3-15346', 'phenyl ethylamine', 'N-Phenylethylamine', 'phenyl ethyl amine', 'ANILINE,N-ETHYL', 'N-Ethylaniline, 98%', 'EC 203-135-5', 'SCHEMBL7709', 'WLN: 2MR', '4-12-00-00250 (Beilstein Handbook Reference)', 'MLS001050106', 'BIDD:ER0269', 'ACMC-20988w', 'CHEMBL455541', 'DTXSID1025271', 'NSC8736', 'NSC-8736', 'Tox21_201766', 'Tox21_300605', 'BBL012081', 'STL163504', 'ZINC12358766', 'AKOS000119087', 'MCULE-4900118020', 'N-Ethylaniline [UN2272]  [Poison]', 'NC-0218', 'UN 2272', 'VF10160', 'NCGC00091714-01', 'NCGC00091714-02', 'NCGC00091714-03', 'NCGC00254485-01', 'NCGC00259315-01', 'SMR001216587', 'E0059', 'FT-0652432', '46881-EP2311804A2', 'A800786', 'Q1959590', 'W-108842', 'F2190-0406', 'Z234894913']