Number;IUPAC_name;Charge;Molecular Formula;Molecular Weight [g/mol];Isomeric SMILES;Pubchem CID;GasPhaseAcidity_B2PLYP//DLPNO-CCSD(T) [kcal/mol];GSolv_Ion_Water [kcal/mol];GSolv_Ion_DMSO [kcal/mol];GSolv_Ion_Acetonitrile [kcal/mol];GSolv_Ion_MeOH [kcal/mol];Gsolv_Neutral_Water_exp [kcal/mol];Gsolv_Neutral_DMSO_TZVPD-Fine [kcal/mol];Gsolv_Neutral_Acetonitrile_TZVPD-Fine [kcal/mol];Gsolv_Neutral_MeOH_TZVPD-Fine [kcal/mol];pka_water;pka_DMSO;pka_Acetonitrile;pka_MeOH;Synonyms
113;4-chloroaniline;1;C6H6ClN;127.57;C1=CC(=CC=C1N)Cl;7812;199.3;-73.1;;;-77.8;-5.9;-10.7;-9.5;-9.2;4;;;5;"['4-CHLOROANILINE', '106-47-8', 'p-Chloroaniline', '4-Chlorobenzenamine', 'Benzenamine, 4-chloro-', 'p-Chloraniline', 'para-Chloroaniline', 'p-Chlorophenylamine', '4-Chlorophenylamine', '1-Amino-4-chlorobenzene', 'p-Aminochlorobenzene', '4-Aminochlorobenzene', '4-Amino-1-chlorobenzene', '4-Chloro-1-aminobenzene', 'Aniline, p-chloro-', '4-Chloro-phenylamine', '4-Chloranilin', 'p-CA', '4-Chlorobenzeneamine', 'Aniline, 4-chloro-', 'Benzeneamine, 4-chloro', '4-chloro aniline', 'RCRA waste number P024', 'NCI-C02039', 'NSC 36941', 'UNII-Z553SGH315', 'CHEBI:20331', '4-CHLORO-ANILINE', 'Z553SGH315', 'MFCD00007835', 'NCGC00091468-02', '4-Chlorobenzamine', 'Caswell No. 182', '4-Chloranilin [Czech]', 'CCRIS 131', 'HSDB 2047', 'EINECS 203-401-0', 'RCRA waste no. P024', 'EPA Pesticide Chemical Code 017203', '4chloroaniline', '4-chioroaniline', 'monochloroaniline', 'parachloroaniline', '4-chloraniline', 'AI3-14908', 'para-choroaniline', '4-Choraniline', 'p-chloro-aniline', '4-chloro-anilin', 'para-chioroaniline', '4- chloroaniline', '4-chloranilin(czech)', '(4-chlorophenyl)amine', '4-Chloro-phenyl amine', '4-Chloro-phenyl-amine', '1,4-aminochlorobenzene', '(4-chlorophenyl)-amine', '4-Chloroaniline, 98%', 'DSSTox_CID_295', 'ACMC-1BUH0', 'WLN: ZR DG', 'EC 203-401-0', 'DSSTox_RID_75495', 'DSSTox_GSID_20295', 'SCHEMBL27544', 'MLS001065589', 'BIDD:ER0279', 'BIDD:GT0259', 'CHEMBL15888', '4-CA', '4-Chloroaniline,p-Chloroaniline', 'DTXSID9020295', 'Aniline, 4-chloro-4-chloranilin', '(4-Chlorophenylamine)radical anion', 'ZINC403225', 'NSC36941', '4-Chloroaniline, analytical standard', 'Tox21_400030', '4-Chloroaniline(4-Chlorophenylamine)', 'BDBM50235880', 'NSC-36941', 'STK301711', 'AKOS000119173', 'AM10490', 'AS06958', 'MCULE-6515849225', 'PS-6272', 'NCGC00091468-01', 'NCGC00091468-03', 'CAS-106-47-8', 'L691', 'SMR000568489', 'FT-0618163', 'FT-0664865', '4-Chloroaniline, technical, >=97.0% (GC)', 'AZ0001-0096', '4-Chloroaniline 100 microg/mL in Acetonitrile', '11641-EP2272509A1', '11641-EP2281563A1', '11641-EP2284157A1', '11641-EP2292593A2', '11641-EP2298768A1', '11641-EP2305652A2', '11641-EP2311829A1', '11641-EP2314585A1', '11641-EP2316827A1', '89299-EP2286811A1', '89299-EP2305652A2', '4-Chloroaniline, purified by sublimation, >=99%', 'Q413515', '4-Chloroaniline, PESTANAL(R), analytical standard', 'W-109393', 'F2190-0430', 'Z1245635719', '4-Chloroaniline, European Pharmacopoeia (EP) Reference Standard', 'p-Chloroaniline, United States Pharmacopeia (USP) Reference Standard', 'p-Chloroaniline, Pharmaceutical Secondary Standard; Certified Reference Material']"
114;1-methylpiperidine;1;C6H13N;99.17;CN1CCCCC1;12291;230.9;;;;-49.4;;-3.4;-4.2;-5.8;;;;9.9;['1-Methylpiperidine', 'N-METHYLPIPERIDINE', '626-67-5', 'Piperidine, 1-methyl-', 'methylpiperidine', '1-Methyl-piperidine', 'N-methyl piperidine', 'UNII-617374QZN4', 'N-Methylpiperidin', '617374QZN4', 'MFCD00006491', 'LK 20', 'EINECS 210-959-9', 'UN2399', 'methylpiperdine', 'AI3-25263', '1-methylpiperadine', 'N-methyl-piperidine', '1-methyl piperidine', 'piperidine, 1-methyl', 'N-Methylpiperidine, 99%', 'ACMC-209n6u', '1-Methylpiperidine solution', 'EC 210-959-9', '1-Methylpiperidine, >=98%', 'CHEMBL281417', 'GTPL5522', 'SCHEMBL1220995', 'DTXSID8060822', 'STR03153', 'ZINC1640941', 'PDSP1_001476', 'PDSP2_001460', 'AKOS015950624', 'MCULE-3308944277', 'UN 2399', 'S724', 'AB0018745', 'DB-002021', 'AM20100531', 'FT-0632641', 'M0403', '8374-EP2269977A2', '8374-EP2269993A1', '8374-EP2272822A1', '8374-EP2275401A1', '8374-EP2275411A2', '8374-EP2275414A1', '8374-EP2281817A1', '8374-EP2287160A1', '8374-EP2298731A1', '8374-EP2298750A1', '8374-EP2298763A1', '8374-EP2316824A1', '8374-EP2374788A1', '8374-EP2377813A1', '8374-EP2380869A1', '8374-EP2380870A1', '74966-EP2272517A1', '74966-EP2308838A1', '77200-EP2286811A1', '77200-EP2308849A1', '77200-EP2308850A1', '1-Methylpiperidine [UN2399]  [Flammable liquid]', '112253-EP2277868A1', '112253-EP2277869A1', '112253-EP2277870A1', '112253-EP2292608A1', '112253-EP2298749A1', 'W-104967', '1-Methylpiperidine solution, 15% in methanol: water', 'Q24004759', '1-Methylpiperidine solution, BioReagent, suitable for protein sequencing, ~40% in 1-butanol', '101025-96-1']
115;2,4-dimethylpyridine;1;C7H9N;107.15;CC1=CC(=NC=C1)C;7936;223.5;;;-63.3;;;-6.0;-6.6;-7.6;;;14.1;;['2,4-Lutidine', '2,4-DIMETHYLPYRIDINE', '108-47-4', 'Pyridine, 2,4-dimethyl-', '2,4-dimethyl-pyridine', 'alpha,gamma-Dimethylpyridine', '2,4-Lutidene', 'UNII-83903UJ0WW', '.alpha.,.gamma.-Dimethylpyridine', '83903UJ0WW', 'MFCD00006337', 'NSC 2156', 'EINECS 203-586-8', 'BRN 0001506', 'AI3-24281', 'NSC2156', '2.4-lutidine', '2,4 Lutidine', '4,6-dimethyl-pyridine', 'ACMC-1BQPD', '2,4-Lutidine, 99%', 'SCHEMBL44068', '5-20-06-00019 (Beilstein Handbook Reference)', 'DTXSID2051556', '2,4-Lutidine, analytical standard', 'NSC-2156', 'STR07571', 'ZINC8294954', 'BBL027575', 'STL280318', 'AKOS005258307', 'CS-W020592', 'MCULE-4424416466', 'alpha,Laquo gammaRaquo -dimethylpyridine', 'AC-26213', 'BP-30083', 'H607', 'DB-023691', 'AM20050655', 'FT-0610233', 'L0085', 'EN300-19112', 'W-200785', 'Q22266828', 'RVV']
116;2,6-dimethylpyridine;1;C7H9N;107.15;CC1=NC(=CC=C1)C;7937;223.1;;;;-54.6;;-5.6;-6.1;-7.3;;;;6.9;"['2,6-Dimethylpyridine', '2,6-LUTIDINE', '108-48-5', 'Pyridine, 2,6-dimethyl-', 'Lutidine', '2,6-Dimethypyridine', ""alpha,alpha'-Lutidine"", '2,6-dimethyl-pyridine', ""alpha,alpha'-Dimethylpyridine"", 'HSDB 79', 'NSC 2155', 'UNII-15FQ5D0T3P', '2,6-Lutidene', "".alpha.,.alpha.'-Dimethylpyridine"", 'MFCD00006345', "".alpha.,.alpha.'-Lutidine"", '15FQ5D0T3P', 'CHEBI:32548', 'LUT', 'FEMA No. 3540', ""alpha,alpha'-Lutidin"", 'EINECS 203-587-3', 'lutidin', 'AI3-24282', '2,6Lutidine', '2,6 lutidine', '2-6-lutidine', '2.6-lutidine', '2,6 -lutidine', '2,6- lutidine', '2,6-dimethylpiridine', '2.6-dimethylpyridine', '2,6-dimethyl pyridin', '2,6-dimethyl pyridine', 'ACMC-1BTAI', '2,6-Lutidine, 8CI', 'Pyridine,2,6-dimethyl-', "".alpha.,.alpha.'-Lutidin"", 'SCHEMBL9611', 'DSSTox_CID_30109', 'DSSTox_GSID_51557', 'CHEMBL22976', 'DIMETHYLPYRIDINE(2,6-)', 'DTXSID7051557', 'FEMA 3540', '2,6-Dimethylpyridine, >=99%', 'NSC2155', '2,6-Dimethylpyridine, redistilled', 'ZINC967330', '2,6-Lutidine, analytical standard', 'EBD19521', 'NSC-2155', 'Tox21_303862', 'BBL013176', 'STL163956', 'AKOS005716680', 'AC-5116', 'AM10711', 'AS04947', 'MCULE-7437303122', '2,6-Lutidine, ReagentPlus(R), 98%', 'NCGC00357127-01', 'BP-30085', 'CAS-108-48-5', 'DB-013994', 'FT-0610735', 'L0067', 'X8109', 'EN300-19113', '9313-EP2270010A1', '9313-EP2270014A1', '9313-EP2270113A1', '9313-EP2272825A2', '9313-EP2272838A1', '9313-EP2272935A1', '9313-EP2275404A1', '9313-EP2277565A2', '9313-EP2277566A2', '9313-EP2277567A1', '9313-EP2277568A2', '9313-EP2277569A2', '9313-EP2277570A2', '9313-EP2277878A1', '9313-EP2281822A1', '9313-EP2284157A1', '9313-EP2284174A1', '9313-EP2286811A1', '9313-EP2289868A1', '9313-EP2289890A1', '9313-EP2292280A1', '9313-EP2292615A1', '9313-EP2295414A1', '9313-EP2295415A1', '9313-EP2298731A1', '9313-EP2298747A1', '9313-EP2298767A1', '9313-EP2298768A1', '9313-EP2298778A1', '9313-EP2301911A1', '9313-EP2301928A1', '9313-EP2301934A1', '9313-EP2301940A1', '9313-EP2308562A2', '9313-EP2308851A1', '9313-EP2308861A1', '9313-EP2308872A1', '9313-EP2308873A1', '9313-EP2309584A1', '9313-EP2311810A1', '9313-EP2311830A1', '9313-EP2314576A1', '9313-EP2314583A1', '9313-EP2314586A1', '9313-EP2316829A1', '17269-EP2272825A2', '17269-EP2275411A2', '17269-EP2280005A1', '17269-EP2284159A1', '17269-EP2287155A1', '17269-EP2289884A1', '17269-EP2295402A2', '17269-EP2295414A1', '17269-EP2298731A1', '17269-EP2298734A2', '17269-EP2298750A1', '17269-EP2311801A1', '17269-EP2311802A1', '17269-EP2311803A1', '17269-EP2311811A1', '17269-EP2314586A1', '17269-EP2371814A1', '17269-EP2377813A1', '17269-EP2380869A1', '17269-EP2380870A1', '2,6-Lutidine, purified by redistillation, >=99%', 'A801883', 'AC-907/25014177', 'Q209284', 'Q-100049', 'F0001-0171', 'Z1201023029']"
117;2-methylpyridine;1;C6H7N;93.13;CC1=CC=CC=N1;7975;219.7;;;;-56.7;;-5.8;-6.0;-7.0;;;;6.2;"['2-METHYLPYRIDINE', '2-Picoline', '109-06-8', 'o-Picoline', 'alpha-Picoline', 'Pyridine, 2-methyl-', 'Picoline', 'METHYLPYRIDINE', 'Pyridine, methyl-', 'a-picoline', '2-METHYL-PYRIDINE', 'o-Methylpyridine', 'PICOLINE, ALPHA', 'RCRA waste number U191', '1333-41-1', '.alpha.-Picoline', 'NSC 3409', '2-Mepy', 'UNII-3716Q16Q6A', '.alpha.-Methylpyridine', 'CHEBI:50415', '3716Q16Q6A', 'NCGC00160644-01', 'DSSTox_CID_1899', 'DSSTox_RID_76392', 'DSSTox_GSID_21899', 'alpha-Methylpyridine', 'CAS-109-06-8', 'CCRIS 1721', 'HSDB 101', 'EINECS 203-643-7', 'RCRA waste no. U191', 'AI3-2409', 'Alpha picoline', '2-methylpridine', 'AI3-24109', '2--picoline', '2-Methyl pyridine', 'Picoline (Related)', 'Picoline, .alpha.', 'MFCD00006332', '2-Picoline, 98%', 'ACMC-20aj4x', '2-Pyridylmethyl radica1', '2-Methylpyridine, 98%', 'EC 203-643-7', 'NCIOpen2_007826', 'NCIOpen2_007919', 'WLN: T6NJ B1', 'BIDD:ER0295', 'CHEMBL15732', '2-Picoline, analytical standard', 'DTXSID9021899', 'NSC3409', '2-Picoline,(S);2-Methylpyridine', 'BCP26524', 'NSC-3409', 'Tox21_111951', 'Tox21_201693', 'STL268873', 'ZINC38192546', '2-Methylpyridine-Pyridine, 2-methyl-', 'AKOS000119190', 'ZINC328578702', 'AM81276', 'MCULE-3857746542', 'NCGC00160644-02', 'NCGC00259242-01', 'DB-023694', 'o-Picoline [UN2313]  [Flammable liquid]', 'FT-0613358', 'P0415', '68007-EP2277864A1', '68007-EP2308874A1', '72795-EP2277878A1', '72795-EP2305652A2', '72795-EP2309584A1', '2-Methylpyridine, Lonza quality, >=99.0% (GC)', 'J-510091', 'Q2216745', 'F0001-0192', '2-Methylpyridine pound>>o-Picoline pound>>Pyridine, 2-methyl-']"
118;3-bromoaniline;1;C6H6BrN;172.02;C1=CC(=CC(=C1)Br)N;11562;200.0;;;;-76.9;;-11.5;-10.2;-9.9;;;;4.4;['3-BROMOANILINE', '591-19-5', 'm-Bromoaniline', 'Benzenamine, 3-bromo-', '3-bromo aniline', 'm-Aminobromobenzene', 'Aniline, m-bromo-', '3-Bromobenzenamine', 'bromoaniline(3-)', '3-bromo-benzenamine', '1-amino-3-bromobenzene', '3-bromo-aniline', 'MFCD00007757', '3-Bromo-phenylamine', 'Aniline, 3-bromo-', '3-Bromophenylamine', 'EINECS 209-704-4', 'NSC 10298', 'BRN 0742028', '3bromoaniline', 'm-bromo aniline', 'm-bromo-aniline', '3-bromaniline', '5-Bromoaniline', '5-bromo aniline', '3-bromanylaniline', '3-aminophenyl bromide', '(3-bromophenyl)-amine', '3-Bromoaniline, 98%', 'ACMC-1B1JX', '3-BrC6H4NH2', 'Aniline, m-bromo- (8CI)', 'SCHEMBL70041', '4-12-00-01491 (Beilstein Handbook Reference)', 'DTXSID4060448', 'TIMTEC-BB SBB040484', 'OTAVA-BB 1362075', 'LABOTEST-BB LTBB005286', 'ACT07924', 'CS-D1428', 'NSC10298', 'ZINC3861310', 'AKOS BBS-00003651', 'LABOTEST-BB LT03331316', 'LABOTEST-BB LT03379590', 'NSC-10298', 'STL168897', 'AKOS000119107', 'AM87083', 'AS00407', 'CM10037', 'LS10546', 'MCULE-1109806093', 'PS-4136', 'AC-10869', 'BC002531', 'BP-12825', 'L492', 'DB-022298', 'B0542', 'FT-0615189', 'D78531', '82106-EP2272817A1', '82106-EP2272822A1', '82106-EP2289890A1', '82106-EP2292593A2', '82106-EP2305677A1', 'A832170', 'A930101', 'W-105340', 'F5608-0065', 'Z1245735202']
119;3-methoxyaniline;1;C7H9NO;123.15;COC1=CC=CC(=C1)N;10824;205.3;;;;-73.6;;-10.8;-10.0;-9.7;;;;6;"['m-Anisidine', '3-METHOXYANILINE', '536-90-3', 'm-Methoxyaniline', '3-Aminoanisole', '3-Anisidine', 'Benzenamine, 3-methoxy-', '3-Methoxybenzenamine', 'm-Aminoanisole', 'm-Anisylamine', '1-Amino-3-methoxybenzene', 'UNII-JXA144KX2I', 'NSC 7631', '3-Methoxy-phenylamine', 'MFCD00007783', 'JXA144KX2I', 'Benzenamine, 3-methoxy-, homopolymer', '3-Methoxy aniline', '104350-19-8', '3-methoxyphenylamine', 'CCRIS 5886', 'EINECS 208-651-4', 'BRN 0386119', 'meta-anisidine', 'AI3-52519', 'HSDB 7816', '3-methoxylaniline', '3-methoxy-aniline', 'meta-methoxyaniline', '3-methyoxy-aniline', 'm-Aminomethoxybenzene', '3-(methyloxy)aniline', '3-methoxy-benzenamine', 'm-Anisidine, 97%', '1820607-08-6', '(3-ethoxyphenyl)amine', 'ACMC-1ANQF', '(3-methoxyphenyl)-amine', ""3'-AMINOPHENETOL"", '3-Methoxy-1-aminobenzene', 'DSSTox_CID_4529', '3-Aminophenol methyl ether', 'DSSTox_RID_77445', 'AKOS BBB/405', 'DSSTox_GSID_24529', 'SCHEMBL66692', '5-METHOXYPHENYL AMINE', '4-13-00-00953 (Beilstein Handbook Reference)', 'MLS001050108', 'CHEMBL1500995', 'DTXSID8024529', 'TIMTEC-BB SBB040499', 'NSC7631', 'MOLARCH MA_0100121', 'OTAVA-BB 1314576', 'OTAVA-BB 1314579', '3-AMINOPHENYL METHYL ETHER', 'LABOTEST-BB LTBB000511', 'LABOTEST-BB LTBB000784', 'ZINC157531', 'BCP27007', 'CS-D1422', 'NSC-7631', 'AKOS BBS-00003677', 'Tox21_200820', '3-Methoxyaniline-[d3] Hydrochloride', 'BBL011599', 'LABOTEST-BB LT03333242', 'STL163332', 'AKOS000119110', 'AM87044', 'AS01512', 'MCULE-1820278837', 'PS-4590', 'NCGC00091221-01', 'NCGC00091221-02', 'NCGC00258374-01', 'AC-10034', 'CAS-536-90-3', 'SMR000112350', 'DB-050406', 'A0485', 'FT-0628164', 'A15634', '79526-EP2305695A2', '79526-EP2305696A2', '79526-EP2305697A2', '79526-EP2305698A2', 'Q-200384', 'Q3296585', 'F2190-0440', 'Z1245633152', 'UNII-6DE9L863GO component NCBZRJODKRCREW-UHFFFAOYSA-N', '3-(4-Fluorophenyl)-5-methyl-4,5-dihydroisoxazole-5-carboxylicacid']"
120;3-methylpyridine;1;C6H7N;93.13;CC1=CN=CC=C1;7970;218.1;;;;-57.9;;-6.0;-6.3;-7.1;;;;5.8;['3-METHYLPYRIDINE', '3-Picoline', '108-99-6', 'beta-Picoline', 'Pyridine, 3-methyl-', 'm-Picoline', 'm-Methylpyridine', 'B-Picoline', '3-Methyl pyridine', '.beta.-Methylpyridine', 'NSC 18251', '.beta.-Picoline', 'UNII-B083J4KF7F', '3-Mepy', '3-Methylpyridin', 'B083J4KF7F', 'CHEBI:39922', 'MFCD00006402', 'beta-Methylpyridine', 'DSSTox_CID_1897', 'DSSTox_RID_76391', 'DSSTox_GSID_21897', 'meta-Methylpyridine', 'CAS-108-99-6', 'CCRIS 1722', 'HSDB 4254', 'EINECS 203-636-9', '3-methypyridine', 'AI3-24110', '5-methylpyridine', '3-methyl pyridin', '3-Methylpyridine, 99%', 'EC 203-636-9', 'NCIOpen2_004641', 'MLS001065607', 'CHEMBL15722', 'ACMC-20991u', '3-Picoline, analytical standard', '3-Methylpyridine, >=99.5%', 'DTXSID9021897', 'HMS3039L05', 'BCP22897', 'BCP26368', 'NSC18251', 'ZINC8294958', 'Tox21_201966', 'Tox21_303001', 'NSC-18251', 'STL282747', 'AKOS000119862', 'ZINC328577986', 'AM81278', 'DB01996', 'MCULE-7651055603', 'NCGC00091447-01', 'NCGC00091447-02', 'NCGC00256559-01', 'NCGC00259515-01', 'SMR000568465', 'DB-016018', 'm-Picoline [UN2313]  [Flammable liquid]', 'FT-0616178', 'P0416', '177484-EP2277864A1', '177484-EP2280002A1', '177485-EP2277878A1', '177485-EP2280002A1', '177486-EP2277864A1', '177486-EP2280002A1', 'Q2697560', 'W-108710', 'F0001-0187', '5HS']
121;pyridine-4-carbonitrile;1;C6H4N2;104.11;C1=CN=CC=C1C#N;7506;203.1;;;;-72.4;;-8.3;-7.9;-8.2;;;;4.6;['4-CYANOPYRIDINE', 'Isonicotinonitrile', '100-48-1', '4-Pyridinecarbonitrile', 'pyridine-4-carbonitrile', 'Isonicotinic acid nitrile', '4-Pyridinenitrile', '.gamma.-Cyanopyridine', 'p-cyanopyridine', '4-Cyano pyridine', 'UNII-BY3226D010', 'MFCD00006417', 'BY3226D010', 'gamma-Cyanopyridine', 'EINECS 202-856-2', 'NSC 60681', 'AI3-19232', 'ACMC-1BO6D', 'DSSTox_CID_21528', 'DSSTox_RID_79767', 'DSSTox_GSID_41528', '4-Pyridinecarbonitrile, 98%', 'SCHEMBL151611', 'CHEMBL504918', 'DTXSID9041528', 'GPHQHTOMRSGBNZ-UHFFFAOYSA-', 'ZINC331641', 'ACT01368', 'BCP30880', 'NSC60681', 'Tox21_300741', 'BBL012855', 'NSC-60681', 'STK870425', 'AKOS000119008', 'AM81279', 'MCULE-4377487578', 'SB52238', 'Fampridine Impurity 2 (4-Cyanopyridine)', 'NCGC00248155-01', 'NCGC00254647-01', 'CAS-100-48-1', 'DS-16750', 'H325', 'DB-016063', 'CS-0015782', 'FT-0618310', 'C02234', 'D77982', '4-Pyridinecarbonitrile, purum, >=96.0% (GC)', 'AC-907/25014099', 'Q-200465', 'Q27274960', 'Z57899720', 'F0001-0018']
122;4-ethylpyridine;1;C7H9N;107.15;CCC1=CC=NC=C1;10822;220.3;;;;-56.6;;-6.2;-6.8;-7.6;;;;6.1;['4-ETHYLPYRIDINE', '536-75-4', 'Pyridine, 4-ethyl-', '.gamma.-Ethylpyridine', 'Pyridine, C1-3-alkyl derivs.', '4-ethyl pyridine', 'UNII-3KW0SE2TL5', '4-Ethyl-pyridine', '3KW0SE2TL5', '71077-16-2', '151103-55-8', 'Pyridine, 4-ethyl-, radical ion(1+) (9CI)', 'gamma-Ethylpyridine', '(C1-C3) Alkylpyridine', '4ethylpyridine', 'NSC 822', 'pyridine,4-ethyl-', 'EINECS 208-646-7', 'EINECS 275-172-5', '4-(C2H5)-pyridine', '4-Ethylpyridine, 98%', 'ACMC-209l9j', 'SCHEMBL14208', 'CHEMBL22977', 'NSC822', 'NSC965', 'DTXSID60873555', 'NSC-822', 'NSC-965', 'ZINC8294961', '7660AB', 'MFCD00006450', 'AKOS005146195', 'FS-4257', 'MCULE-4630537627', '4-Ethylpyridine, purum, >=97.0% (GC)', 'DB-052377', 'E0170', 'FT-0618424', 'D90449', 'Q-101879', 'Q27257452']
123;4-methylbenzoic acid;1;C8H8O2;136.15;CC1=CC=C(C=C1)C(=O)O;7470;190.0;;;-82.2;;;-12.4;-10.6;-11.1;;;0.4;;['4-Methylbenzoic acid', 'P-TOLUIC ACID', '99-94-5', '4-Toluic acid', 'p-Methylbenzoic acid', 'Crithminic acid', 'Benzoic acid, 4-methyl-', 'p-Toluylic acid', 'p-Carboxytoluene', 'para-Toluic acid', '4-Methyl-Benzoic Acid', 'Toluate', 'Toluenecarboxylic acid', 'UNII-A26GBX5SSV', 'para toluic acid', 'NSC 2215', 'MFCD00002565', '4-Methyl benzoic acid', 'A26GBX5SSV', 'CHEBI:36635', 'Supported benzoic acid  (100-200/2.5-3.0)', 'p-toluicacid', '4MA', 'EINECS 202-803-3', 'BRN 0507600', 'Crithmic acid', 'rho-toluic acid', 'AI3-15627', '4-methylbenzic acid', 'p-methyl benzoic acid', 'p-Tolylcarboxylic acid', 'ACMC-209sek', 'p-Toluic acid, 98%', 'Benzoic acid,4-methyl-', 'DSSTox_CID_1618', 'bmse000414', 'WLN: QVR D1', 'DSSTox_RID_76238', 'NCIOpen2_001271', 'SAMPL4, O2', 'DSSTox_GSID_21618', 'SCHEMBL93638', 'SUPPORTED BENZOIC ACID', '4-methylbenzenecarboxylic acid', 'CHEMBL21708', 'DIETHYLETHYLCHLOROMALONATE', 'RARECHEM AL BO 0067', 'DTXSID6021618', 'TIMTEC-BB SBB040516', 'NSC2215', '2420-97-5 (cadmium salt)', 'BDBM197303', 'p-Toluic acid, analytical standard', 'ZINC330134', 'CS-D0602', 'NSC-2215', 'AKOS BBS-00003712', 'Tox21_201091', 'BBL005649', 'HTS006398', 'LABOTEST-BB LT00798642', 'STK498227', 'AKOS000119644', 'AC-3061', 'AM10618', 'AS00864', 'BS-3777', 'MCULE-2497536187', 'CAS-99-94-5', 'OTAVA-BB 7119561590', '4-Methylbenzoic acid4-Methylbenzoic acid', 'NCGC00091128-01', 'NCGC00091128-02', 'NCGC00258643-01', 'HY-76547', 'SY003713', 'FT-0654542', 'T0293', 'C01454', 'D70680', 'p-Toluic acid, Vetec(TM) reagent grade, 98%', '31538-EP2308858A1', '31538-EP2311816A1', '31538-EP2311817A1', 'A846107', 'AB-131/40170882', '4-Methylbenzoic acid(Flakes or Chunks or Granular)', 'Q1607905', 'W-100006', 'Z57902424', 'F1679-0157', 'UNII-I889W3548N component LPNBBFKOUUSUDB-UHFFFAOYSA-N']