Number;IUPAC_name;Charge;Molecular Formula;Molecular Weight [g/mol];Isomeric SMILES;Pubchem CID;GasPhaseAcidity_B2PLYP//DLPNO-CCSD(T) [kcal/mol];GSolv_Ion_Water [kcal/mol];GSolv_Ion_DMSO [kcal/mol];GSolv_Ion_Acetonitrile [kcal/mol];GSolv_Ion_MeOH [kcal/mol];Gsolv_Neutral_Water_exp [kcal/mol];Gsolv_Neutral_DMSO_TZVPD-Fine [kcal/mol];Gsolv_Neutral_Acetonitrile_TZVPD-Fine [kcal/mol];Gsolv_Neutral_MeOH_TZVPD-Fine [kcal/mol];pka_water;pka_DMSO;pka_Acetonitrile;pka_MeOH;Synonyms
93;methylsulfanylmethane;1;C2H6S;62.14;CSC;1068;191.1;-61.9;;;;-1.5;-3.3;-3.9;-3.3;-7;;;;"['dimethyl sulfide', 'Methyl sulfide', '75-18-3', 'Methane, thiobis-', 'dimethyl sulphide', 'dimethylsulfide', 'Methyl thioether', 'Dimethylsulphide', '2-Thiapropane', 'Dimethyl thioether', 'Methylthiomethane', 'Dimethylsulfid', '(Methylsulfanyl)methane', 'METHYLSULFANYLMETHANE', 'Methyl sulphide', 'Methyl monosulfide', 'Dimethyl monosulfide', '2-Thiopropane', 'Methanethiomethane', 'Thiobis(methane)', 'Exact-S', 'Thiobismethane', 'Sulfure de methyle', 'Dimethyl sulfide (natural)', 'dimethylsulfane', 'methylsulfide', 'Methylthiomethyl radical', 'UNII-QS3J7O7L3U', ""Methane, 1,1'-thiobis-"", 'MFCD00008562', '[SMe2]', 'QS3J7O7L3U', 'CHEBI:17437', '(CH3)2S', 'Dimethylsulfid [Czech]', 'Sulfure de methyle [French]', 'FEMA No. 2746', 'HSDB 356', 'EINECS 200-846-2', 'UN1164', 'BRN 1696847', 'Methylsulphide', 'Thiopropane', 'Thiobis-methane', 'di-methylsulfide', 'AI3-25274', 'Dimethyl sulfane', 'Sulfide, methyl-', '(methylthio)methane', 'Me2S', 'REDUCED-DMSO', 'SMe2', 'Nat. Dimethyl Sulfide', 'ACMC-1BBLH', 'Dimethyl sulfide, 98%', 'reduced dimethyl sulfoxide', '(Methylsulfanyl)methane #', 'Dimethyl sulfide [UN1164] [Flammable liquid]', 'Dimethyl sulfide-[13C2]', 'Dimethyl sulfoxide(Reduced)', 'EC 200-846-2', '(Me)2S', 'Dimethyl sulfide, >=99%', 'C2H6S', '(Methylthiomethylidyne)radical', '4-01-00-01275 (Beilstein Handbook Reference)', 'CHEMBL15580', 'DTXSID9026398', 'S(CH3)2', 'Dimethyl sulfide, >=99%, FCC', '6873AF', 'Dimethyl sulfide, analytical standard', 'STL481894', 'Dimethyl sulfide, >=95.0% (GC)', 'AKOS009031411', 'MCULE-4525381422', 'UN 1164', 'Dimethyl sulfide, anhydrous, >=99.0%', '31533-72-9', 'M0431', 'Dimethyl sulfide, puriss., >=99.0% (GC)', 'C00580', 'Dimethyl sulfide, natural, >=99%, FCC, FG', '13741-EP2269977A2', '13741-EP2277865A1', '13741-EP2280006A1', '13741-EP2284171A1', '13741-EP2287153A1', '13741-EP2298767A1', '13741-EP2305656A1', '13741-EP2308851A1', '13741-EP2308873A1', '13741-EP2311820A1', '13741-EP2314576A1', '13741-EP2314587A1', '13741-EP2316836A1', '13838-EP2292595A1', '13838-EP2295409A1', '13838-EP2295426A1', '13838-EP2295427A1', '13838-EP2295437A1', '13838-EP2298775A1', '13838-EP2311820A1', '13838-EP2316836A1', '18767-EP2270003A1', '18767-EP2272832A1', '18767-EP2277848A1', '18767-EP2292576A2', '18767-EP2292597A1', '18767-EP2301933A1', '18767-EP2305672A1', '18767-EP2308510A1', '18767-EP2308838A1', '18767-EP2308877A1', '18767-EP2311827A1', '18767-EP2314576A1', '18767-EP2314587A1', '47704-EP2280006A1', '47704-EP2311811A1', '80926-EP2295426A1', '80926-EP2295427A1', '80926-EP2305687A1', 'Dimethyl sulfide [UN1164]  [Flammable liquid]', 'A838342', 'Dimethyl sulfide, redistilled, >=99%, FCC, FG', 'Q423133', 'Q-100810', 'methyl sulphide, dimethyl sulphide, exact-S, thiobismethane']"
94;methanethiol;-1;CH4S;48.11;CS;878;352.5;-78.6;;;;-1.2;-3.2;-3.5;-2.9;10.3;;;;['methanethiol', 'METHYL MERCAPTAN', 'Mercaptomethane', 'Methylmercaptan', '74-93-1', 'Methyl sulfhydrate', 'Thiomethanol', 'Methanthiol', 'Thiomethyl alcohol', 'Metilmercaptano', 'Methvtiolo', 'Methylmercaptaan', 'Mercaptan methylique', 'Methaanthiol', 'Thiomethane', 'RCRA waste number U153', 'Methanethiole', 'CH3SH', 'methyl-mercaptan', 'Methyl thioalcohol', 'MeSH', 'UNII-2X8406WW9I', 'UN 1064', '2X8406WW9I', 'Methaanthiol [Dutch]', 'Methanthiol [German]', 'Methvtiolo [Italian]', 'Methylmercaptaan [Dutch]', 'Metilmercaptano [Italian]', 'Metilmercaptano [Spanish]', 'Methyl mercaptan (natural)', 'Mercaptan methylique [French]', 'FEMA No. 2716', 'HSDB 813', 'EINECS 200-822-1', 'UN1064', 'RCRA waste no. U153', 'BRN 1696840', 'methane thiol', 'methyl thiol', 'methyl-thiol', '(methyl)sulfane', 'Methylthioalcohol', 'sulfonium methylide', 'Methanethiol, purum', 'Methanethiol, 98.0%', 'EC 200-822-1', 'Methanethiol, >=98.0%', '4-01-00-01273 (Beilstein Handbook Reference)', 'DTXSID5026382', 'CHEBI:16007', 'NSC229573', 'AKOS009157032', 'NSC-229573', 'Methyl mercaptan [UN1064]  [Poison gas]', 'C00409', 'Q409309', '(Mercaptomethyl)polystyrene, extent of labeling: ~2.0 mmol/g S loading', '17719-48-1', 'Z22']
95;ethanethiol;-1;C2H6S;62.14;CCS;6343;349.8;-75.6;;;;-1.3;-3.4;-3.8;-3.3;10.6;;;;['Ethanethiol', 'ETHYL MERCAPTAN', '75-08-1', 'Mercaptoethane', 'Thioethanol', 'Ethyl sulfhydrate', 'Ethyl thioalcohol', 'Ethyl hydrosulfide', 'Aethanethiol', 'Aethylmercaptan', 'Etilmercaptano', 'Etantiolo', 'Thioethyl alcohol', '1-Mercaptoethane', 'Ethylmercaptaan', 'Ethylmerkaptan', 'Ethaanthiol', 'ethyl-mercaptan', 'LPG ethyl mercaptan 1010', 'ethylmercaptan', 'Mercaptan C2', 'NSC 93877', 'UNII-M439R54A1D', 'M439R54A1D', 'Etantiolo [Italian]', 'Ethaanthiol [Dutch]', 'Aethanethiol [German]', 'ethanthiol', 'Ethylmerkaptan [Czech]', 'Ethylmercaptaan [Dutch]', 'Aethylmercaptan [German]', 'Etilmercaptano [Italian]', 'HSDB 814', 'EINECS 200-837-3', 'UN2363', 'ethanethioi', 'ethanethiolate', 'ethanothiol', 'stench', 'ethane thiol', 'stench gas', 'AI3-26618', '1-ethanethiol', '1-Ethylthiol', 'EtSH', 'HSEt', 'Ethanethiol, 97%', 'Ethanethiol, >=97%', 'ACMC-1BH8A', 'C2H5SH', 'EC 200-837-3', 'WLN: SH2', 'Ethanethiol, analytical standard', 'DTXSID9026394', 'CHEBI:46511', 'NSC93877', 'MFCD00004887', 'NSC-93877', 'AKOS000120313', 'Ethanethiol,2-bromo-(7CI,8CI,9CI)', 'MCULE-5717309901', 'UN 2363', 'DB-004032', 'E0036', 'Ethyl mercaptan [UN2363]  [Flammable liquid]', '146587-EP2377849A2', 'Ethanethiol (ethyl mercaptan), analytical standard', 'Q407918', 'Ethanethiol solution, 10 wt. % in propylene glycol', 'J-520442', 'F0001-1889', 'QuadraPure(R) DET, 450-650 mum, extent of labeling: 1.0-2.0 mmol/g loading, macroporous', 'EUF']
96;propane-1-thiol;-1;C3H8S;76.16;CCCS;7848;349.2;-74.7;;;;-1.1;-3.5;-4.1;-3.6;10.7;;;;['1-Propanethiol', 'Propane-1-thiol', 'Propanethiol', '107-03-9', 'PROPYL MERCAPTAN', 'n-Propylmercaptan', 'n-Propyl mercaptan', 'n-Propylthiol', '1-Propylmercaptan', 'Propylthiol', '1-Mercaptopropane', '1-Propyl mercaptan', 'Thiopropyl alcohol', 'n-Thiopropyl alcohol', '1-propylthiol', 'Mercaptan C3', 'propylmercaptan', 'UNII-4AB0N08V2H', 'n-C3H7SH', '4AB0N08V2H', 'CHEBI:8473', '79869-58-2', 'MFCD00004900', 'n-propanethiol', 'propan-1-thiol', 'FEMA No. 3521', 'CCRIS 1246', 'HSDB 1037', 'propanethiol, sodium salt', 'EINECS 203-455-5', 'BRN 1696860', 'propanthiol', 'Propanethiols', 'propane thiol', 'propyl thiol', '1-propanthiol', '1-Propanethoil', '1-propane thiol', '1-propyl thiol', 'n-PrSH', '1-Propanethiol, 99%', '51285-52-0', 'Propyl mercaptan, >=97%', '3-Mercaptopropyl Silica Gel', '4-01-00-01449 (Beilstein Handbook Reference)', 'ACMC-2098n6', 'CHEMBL1236818', 'DTXSID5026750', 'FEMA 3521', 'ZINC897490', 'Propyl mercaptan, analytical standard', 'AKOS000121933', 'MCULE-8267649092', '1-Propanethiol, natural, >=98%, FG', 'FT-0608279', 'FT-0625298', 'M1979', 'P0488', 'Propanethiols [UN2402] [Flammable liquid]', 'C08390', '135120-EP2280000A1', '135120-EP2292228A1', '135302-EP2274983A1', '135302-EP2292228A1', '146588-EP2292597A1', '146588-EP2377849A2', 'A801560', 'Q161679', 'J-001693', 'F8880-8482']
97;benzenethiol;-1;C6H6S;110.18;C1=CC=C(C=C1)S;7969;333.7;-66.2;-65.7;;;-2.6;-7.1;-7.1;-6.5;6.6;10.3;;;['Benzenethiol', 'THIOPHENOL', '108-98-5', 'Phenyl mercaptan', 'Mercaptobenzene', 'Phenylthiol', 'Phenylmercaptan', 'Thiofenol', 'Phenol, thio-', 'RCRA waste number P014', 'USAF XR-19', 'NSC 6953', 'UNII-7K011JR4T0', 'CHEBI:48498', 'FEMA 3616', '7K011JR4T0', 'thiophenate', 'DSSTox_CID_6811', 'DSSTox_RID_78220', 'DSSTox_GSID_26811', 'Thiofenol [Czech]', 'Benzene, mercapto-', 'CAS-108-98-5', 'FEMA No. 3616', 'CCRIS 8922', 'HSDB 5387', 'EINECS 203-635-3', 'UN2337', 'RCRA waste no. P014', 'benzenthiol', 'BRN 0506523', 'thiphenol', 'benzene thiol', 'thio-phenol', '(phenyl)sulfane', 'Thio phenol', 'AI3-15418', 'Mercapto-Benzene', 'phenyl hydrosulfide', 'HSPh', 'PhSH', 'BT6', 'Thiophenol, 97%', 'Phenyl mercaptan [UN2337] [Poison]', 'Thiophenol, >=99%', 'SCHEMBL67', 'WLN: SHR', 'EC 203-635-3', '4-06-00-01463 (Beilstein Handbook Reference)', 'Benzenethiol, >=98%, FG', 'Benzenethiol, Phenyl Mercaptan', 'Thiophenol, analytical standard', 'CHEMBL119405', 'DTXSID7026811', 'TIMTEC-BB SBB040929', 'NSC6953', 'LABOTEST-BB LTBB001444', 'NSC-6953', 'STR00162', 'ZINC1867127', 'AKOS BBS-00004420', 'Tox21_201577', 'Tox21_303257', 'MFCD00004826', 'NSC229566', 'STL263870', 'AKOS000118794', 'AS04135', 'MCULE-4163310418', 'NSC-229566', 'Thiophenol, purum, >=98.0% (GC)', 'UN 2337', 'NCGC00249074-01', 'NCGC00257036-01', 'NCGC00259126-01', 'Phenyl mercaptan [UN2337]  [Poison]', 'BP-21352', 'B0041', 'V2324', '8387-EP2269993A1', '8387-EP2270009A1', '8387-EP2270114A1', '8387-EP2272817A1', '8387-EP2272839A1', '8387-EP2272840A1', '8387-EP2274983A1', '8387-EP2277862A2', '8387-EP2277881A1', '8387-EP2284165A1', '8387-EP2289509A2', '8387-EP2292596A2', '8387-EP2292597A1', '8387-EP2295437A1', '8387-EP2298775A1', '8387-EP2298776A1', '8387-EP2305808A1', '8387-EP2308812A2', '8387-EP2308840A1', '8387-EP2314576A1', '8387-EP2316824A1', '30241-EP2272839A1', '30241-EP2272840A1', '30241-EP2272972A1', '30241-EP2272973A1', '30241-EP2275404A1', '30241-EP2277872A1', '30241-EP2280001A1', '30241-EP2292601A1', '30241-EP2298739A1', '30241-EP2301911A1', '30241-EP2305695A2', '30241-EP2305696A2', '30241-EP2305697A2', '30241-EP2305698A2', '30241-EP2308812A2', '30241-EP2311464A1', 'Q338965', 'J-524964', 'F0001-0186', '16528-57-7']
98;sulfane;-1;H2S;34.08;S;402;347.1;-77.2;;;;-0.7;-3.1;-3.1;-2.5;7;;;;"['hydrogen sulfide', 'sulfane', 'Hydrosulfuric acid', 'Hydrogen sulphide', 'Stink DAMP', 'Dihydrogen monosulfide', 'Dihydrogen sulfide', 'Sulfureted hydrogen', 'Sewer gas', 'Netzschwefel', 'Kolospray', 'Liquamat', 'Micowetsulf', 'Microflotox', 'Colsul', 'Crystex', 'Elosal', 'Hexasul', 'Kolofog', 'Kumulus', 'Sastid', '7783-06-4', 'Cosan', 'Hydrogen sulfide (H2S)', 'Polsulkol Extra', 'Hydrogene sulfure', 'Acide sulfhydrique', 'Schwefelwasserstoff', 'Corosul D and S', 'RC-Schwefel Extra', 'Kolloidschwefel 95', 'Siarkowodor', 'Zwavelwaterstof', 'Cosan 80', 'Hepatic acid', 'Hydrogen-sulfide', 'Idrogeno solforato', 'Kolo 100', 'Hydrogen monosulfide', 'Sulfuretted hydrogen', 'Hepatic gas', 'RCRA waste number U135', 'H2S', 'CHEBI:16136', 'CHEBI:26833', 'UNII-YY9FVM7NSN', 'YY9FVM7NSN', 'UN 1053', 'NSC-403664', 'Collokit', 'Kristex', 'Microthiol', 'Shreesul', 'Kumulus FL', 'Magnetic 6', 'Q60998679', 'Caswell No. 812', 'azufre', 'Proactiv', 'Transact', 'Schwefel, feinverteilter', 'Hydrogene sulphure', 'Acide sulphhydrique', 'Siarkowodor [Polish]', 'Hydrogen sulfide H2S', 'Hydrogen sulfuric acid', 'Magnetic 70, 90, and 95', 'HSDB 5166', 'Zwavelwaterstof [Dutch]', 'EINECS 231-722-6', 'NA1350', 'NA2448', 'UN1350', 'UN2448', 'Hydrogen sulfure [French]', 'RCRA waste no. U135', 'EPA Pesticide Chemical Code 077501', 'Hydrogene sulfure [French]', 'NSC 403664', 'Acide sulfhydrique [French]', 'dihydridosulfur', 'monosulfane', 'Schwefelwasserstoff [German]', 'theion', 'Hydrosulfurate', 'Idrogeno solforato [Italian]', 'Acnaveen', 'Cuticura', 'Eskamel', 'Hepatate', 'Schwefel', 'Acnil', 'Meted', 'FEMA No. 3779', 'Thio radical', 'HSDB 576', 'Hydrogen sulfure', 'Sour gas', 'Dome-Acne', 'intracellular S0', 'Bensulfoid (TN)', 'dihydrogen(sulfide)', ""sulfure d'hydrogene"", 'EINECS 231-977-3', 'Sastid (TN)', 'UN1053', 'component of Bensulfoid', 'Sour gas (Salt/Mix)', 'Dicyclopropylketone, 90%', 'Magnetic 70, and 95', 'EC 231-722-6', 'Hydrogen sulfide (solution)', '37331-50-3', '63705-05-5', 'Hydrogen sulfide, >=99.5%', 'CHEMBL1200739', 'CHEMBL2105487', 'DTXSID4024149', 'DTXSID9034941', 'NIOSH/MX1229000', '[SH2]', 'Sulfur [NA1350]  [Class 9]', '8984AF', 'BDBM50147625', 'BDBM50498447', 'NSC403664', 'Hydrogen sulfide, purum, >=99.0%', 'AKOS015833648', 'AKOS015950634', 'Sulfur [UN1350]  [Flammable solid]', 'BP-21056', 'Sulfur, molten [NA2448]  [Class 9]', 'Hydrogen sulfide solution, 0.8 M in THF', 'Hydrogen sulfide [UN1053]  [Poison gas]', 'FT-0698736', 'MX12290000', 'Sulfur, powder, 99.998% trace metals basis', 'C00087', 'C00283', 'D00024', 'EC 231-977-3', 'F21255', 'Sulfur, molten [UN2448]  [Flammable solid]', 'A857440', 'Q170591', 'Q7636182', 'F5FD384D-E823-4920-B313-6476A1F3F0C5']"
101;fluorane;-1;FH;20.0064;F;14917;374.8;;;;;;-8.3;-5.7;-6.4;;;;;"['HYDROFLUORIC ACID', 'Hydrogen fluoride', '7664-39-3', 'fluorane', 'Hydrofluoride', 'Fluorwasserstoff', 'Hydrogen-fluoride', 'UNII-RGL5YE86CZ', 'CHEBI:29228', 'RGL5YE86CZ', 'Hydrogen fluoride, anhydrous', 'Rubigine', 'Antisal 2B', 'Fluorowodor [Polish]', 'Caswell No. 484', 'Hydrogenfluorid', 'Fluorowodor', 'Fluorwaterstof', 'Fluorwaterstof [Dutch]', 'hydrogenfluoride', 'Hydrogen fluoride (HF)', 'Fluorwasserstoff [German]', 'MFCD00011346', 'Acido fluoridrico', 'UN 1790 (solution)', 'Hydrofluoric acid, ACS reagent, 48%', 'UN 1052 (anhydrous)', 'Acido fluorhidrico', 'RCRA waste number U134', 'Acide fluorhydrique', 'Acido fluoridrico [Italian]', 'Acide fluorhydrique [French]', 'Acido fluorhidrico [Spanish]', 'Hydrofluoricum acidum', 'HSDB 546', 'EINECS 231-634-8', 'UN1052', 'UN1790', 'RCRA waste no. U134', ""Fluorure d'hydrogene anhydre [French]"", 'EPA Pesticide Chemical Code 045601', ""Fluorure d'hydrogene anhydre"", 'fluorum', 'Fluoruro de hidrogeno anhidro [Spanish]', 'Fluoruro de hidrogeno anhidro', 'Hydridofluorine', 'fluoridohydrogen', 'Fluoro radical', 'hyrofluoric acid', 'Fluorohydric acid', ""fluorure d'hydrogene"", 'Hydrofluoric acid 70% by weight or more HF', 'ACMC-1BAS6', 'EC 231-634-8', '32057-09-3', 'Hydrofluoric acid, 55%, CP', '[HF]', '60% HF/DMF', 'CHEMBL1232767', 'DTXSID1049641', 'CHEBI:24061', 'DTXSID60872462', 'Hydrogen fluoride/Hydrofluoric acid (conc 50% or greater)', 'Hydrofluoric acid, AR, >=40%', 'Hydrofluoric acid, LR, 39-43%', 'Hydrofluoric acid, SAJ first grade', 'BDBM50499187', 'Hydrofluoric acid, 48% ACS reagent', 'Hydrofluoric acid, JIS special grade', 'NSC750679', 'AKOS024438092', 'DB11072', 'MCULE-2361956978', 'NSC 750679', 'NSC-750679', 'Hydrofluoric acid, technical, 40-45%', '37249-79-9', 'FLUORINE, ISOTOPE OFMASS 18, AT.', 'Hydrofluoric acid, technical grade, 68.0%', 'FT-0627129', 'Q2468', 'Hydrofluoric acid, with more than 60% strength', 'Hydrofluoric acid, with not more than 60% strength', 'Hydrogen fluoride, anhydrous [UN1052]  [Corrosive]', 'Hydrofluoric acid, for ultratrace analysis, 47-51% (T)', 'Hydrofluoric acid, Environmental Grade, (47-51 wt% in water)', 'Hydrofluoric acid, 48 wt. % in H2O, >=99.99% trace metals basis', 'Hydrofluoric acid, Environmental Grade Plus, (47-51wt % in water)', 'Hydrofluoric acid, electronic grade,49wt. % in H2O,99.99998%metals basis', 'Hydrofluoric acid, puriss. p.a., reag. ISO, reag. Ph. Eur., >=40%', 'Hydrofluoric acid, semiconductor grade VLSI PURANAL(TM) (Honeywell 17601)', 'Hydrofluoric acid, with more than 60% strength [UN1790]  [Corrosive]', 'Hydrofluoric acid, with not more than 60% strength [UN1790]  [Corrosive]', 'Hydrofluoric acid, p.a., ACS reagent, reag. ISO, reag. Ph. Eur., 48.0-51.0%', 'Hydrofluoric acid, puriss. p.a., ACS reagent, reag. ISO, reag. Ph. Eur., >=48%', 'Hydrofluoric acid, semiconductor grade MOS PURANAL(TM) (Honeywell 17928), 49.5-50.5%', 'Hydrofluoric acid, semiconductor grade PURANAL(TM) (Honeywell 17735), 40-41%', 'Hydrofluoric acid, semiconductor grade PURANAL(TM) (Honeywell 17736), 49.5-50.5%', 'Cytoreg (r) is pharmacologically active solution composed by 6 acids in an aqueous medium. The Active ingredient is Hydrofluoric Acid.']"
103;bromane;-1;BrH;80.91;Br;260;319.3;;;;;;-4.2;-3.2;-3.2;;;;;"['Hydrogen bromide', 'HYDROBROMIC ACID', '10035-10-6', 'hydrobromide', 'Bromwasserstoff', 'Broomwaterstof', 'Bromowodor', 'Acido bromidrico', 'Acide bromhydrique', 'Anhydrous hydrobromic acid', 'bromane', 'UNII-3IY7CNP8XJ', 'CHEBI:47266', 'MFCD00011323', '3IY7CNP8XJ', 'HBR', 'Hydrobromic Acid, 47-49%', 'Bromowodor [Polish]', 'hydrogenbromide', 'Broomwaterstof [Dutch]', 'Hydrogen bromide (HBr)', 'Bromwasserstoff [German]', 'Hydrobromic acid, ACS reagent, 48%', 'Acido bromhidrico', 'Acido bromidrico [Italian]', 'Hydrogen bromide, anhydrous', 'Acide bromhydrique [French]', 'Acido bromhidrico [Spanish]', 'HSDB 570', 'Hydrobromic acid,48%', 'EINECS 233-113-0', ""Bromure d'hydrogene anhydre [French]"", 'UN1048', 'UN1788', ""Bromure d'hydrogene anhydre"", 'Bromuro de hidrogeno anhidro [Spanish]', 'Bromuro de hidrogeno anhidro', 'bromohydride', 'bromum', 'hydro bromide', 'hydrobromic aicd', 'hydrogen-bromide', 'hyrdogen bromide', 'hydrobrornic acid', 'Elemental Bromine', 'hydro-bromic acid', ""bromure d'hydrogene"", 'Hydrogen monobromide', 'ACMC-1BUCJ', 'Hydrobromic acid solution', 'Hydrogen Bromide (aq.)', 'Hydrobromic acid 62% by weight or more HBr', '35Br', 'EC 233-113-0', 'hydrogen bromide 33% w/w', 'NTDA-C8H17', 'Hydrogen bromide, anhydrous-', 'CHEMBL1231461', 'DTXSID0029713', 'CHEBI:22927', 'DTXSID201014232', 'Hydrogen Bromide - Ethanol Reagent', 'Hydrogen Bromide - Methanol Reagent', 'BDBM50499189', 'AKOS015833690', 'Hydrobromic acid, reagent grade, 48%', 'EBD2198018', 'MCULE-6124492894', 'UN 1048', 'UN 1788', 'Hydrobromic acid, 48% aqueous solution', 'Hydrogen bromide 33% in ACETIC ACID', 'Hydrogen Bromide 33% wt in Acetic Acid', 'BP-21021', 'Hydrobromic acid,48%, ACS reagent grade', 'Hydrogen bromide, ReagentPlus(R), >=99%', 'FT-0627106', 'FT-0627122', 'H0182', 'H0959', 'H1220', 'Q2447', 'A800104', 'Hydrobromic acid, SAJ first grade, 45.0-49.0%', 'Hydrobromic acid solution, 33 wt. % in acetic acid', 'Hydrobromic acid solution, purum p.a., >=62% (T)', 'Hydrobromic acid, 48 wt. % in H2O, >=99.99%', 'Hydrobromic acid, JIS special grade, 47.0-49.0%', 'Hydrogen bromide solution, 33 wt. % in acetic acid', 'J-802224', 'Hydrobromic acid, with more than 49% hydrobromic acid', 'Hydrogen bromide, anhydrous [UN1048]  [Poison gas]', 'Hydrobromic acid, p.a., ACS reagent, reag. ISO, 47.0%', 'Hydrobromic acid, with not more than 49% hydrobromic acid', '2,7-Dioctylbenzo[lmn ][3,8]phenanthroline-1,3,6,8(2H ,7H)-tetraone', 'Hydrobromic acid, with more than 49% hydrobromic acid [UN1788]  [Corrosive]', 'Hydrobromic acid, with not more than 49% hydrobromic acid [UN1788]  [Corrosive]']"