Number;IUPAC_name;Charge;Molecular Formula;Molecular Weight [g/mol];Isomeric SMILES;Pubchem CID;GasPhaseAcidity_B2PLYP//DLPNO-CCSD(T) [kcal/mol];GSolv_Ion_Water [kcal/mol];GSolv_Ion_DMSO [kcal/mol];GSolv_Ion_Acetonitrile [kcal/mol];GSolv_Ion_MeOH [kcal/mol];Gsolv_Neutral_Water_exp [kcal/mol];Gsolv_Neutral_DMSO_TZVPD-Fine [kcal/mol];Gsolv_Neutral_Acetonitrile_TZVPD-Fine [kcal/mol];Gsolv_Neutral_MeOH_TZVPD-Fine [kcal/mol];pka_water;pka_DMSO;pka_Acetonitrile;pka_MeOH;Synonyms
72;benzene-1,4-diol;-1;C6H6O2;110.11;C1=CC(=CC=C1O)O;785;344.9;-82.3;;;;-11.9;-17.3;-13.7;-14.4;9.9;;;;"['hydroquinone', '1,4-benzenediol', 'Benzene-1,4-diol', '123-31-9', 'Quinol', '1,4-Dihydroxybenzene', 'p-Benzenediol', 'p-Hydroquinone', 'p-Hydroxyphenol', 'p-Dihydroxybenzene', '4-Hydroxyphenol', 'Benzoquinol', 'Eldoquin', 'hydroquinol', 'Eldopaque', 'Phiaquin', 'p-Dioxybenzene', 'Dihydroquinone', 'Hydroquinole', 'Idrochinone', 'Tecquinol', 'Dihydroxybenzene', 'Solaquin forte', 'Benzohydroquinone', 'Arctuvin', 'Hidroquinone', 'Tequinol', 'Derma-Blanch', 'Tenox HQ', 'Hydrochinon', 'Hydrochinone', 'Artra', 'Eldopaque Forte', 'Eldoquin Forte', 'Diak 5', 'Benzene, p-dihydroxy-', '1,4-Dihydroxy-benzol', 'Usaf ek-356', '1,4-Diidrobenzene', 'p-Dioxobenzene', '1,4-Dihydroxybenzen', 'para-Dioxybenzene', 'para-Hydroquinone', 'Pyrogentistic acid', '1,4-Dihydroxy-benzeen', 'NCI-C55834', 'HE 5', 'para-Dihydroxybenzene', 'Black and White Bleaching Cream', 'Melanex', 'Idrochinone [Italian]', 'Hydrochinon [Czech, Polish]', '1,4-Dihydroxybenzen [Czech]', '1,4-Diidrobenzene [Italian]', 'Benzosemiquinone', '1,4-Dihydroxy-benzeen [Dutch]', '1,4-Dihydroxy-benzol [German]', 'UNII-XV74C1N1AE', 'NSC 9247', 'UN2662', 'Hydroquinone [USP]', 'CHEBI:17594', 'AI3-00072', '4-DIHYDROXYBENZENE', 'MFCD00002339', 'HQ', 'CHEMBL537', 'XV74C1N1AE', '1,4-Benzenediol, homopolymer', 'DTXSID7020716', 'NSC-9247', 'Hydroquinone [UN2662]  [Poison]', 'Hydroquinone (USP)', 'NCGC00015523-02', 'beta-quinol', 'DSSTox_CID_716', 'DSSTox_RID_75754', 'DSSTox_GSID_20716', 'Eldopacque', 'Hydroquinone (Benzene-1,4-diol)', 'Epiquin', 'Sunvanish', 'p Benzendiol', 'p-Dihydroquinone', 'alpha-hydroquinone', 'para-Hydroxyphenol', '26982-52-5', 'CAS-123-31-9', 'SMR000059154', 'CCRIS 714', '1,4-Hydroxybenzene', 'HSDB 577', 'SR-01000075920', 'EINECS 204-617-8', 'hydroquinon', 'Hydroquinoue', 'hydroq uinone', 'hydroquinone gr', 'a-Hydroquinone', 'Black & White Bleaching Cream', 'p-Hydroxybenzene', 'b-Quinol', '4-Benzenediol', 'Hydroquinone, HQ', '.beta.-Quinol', '1,4 benzenediol', 'Hydroquinone,(S)', 'p-dihydroxy benzene', 'HQE', 'Hydroquinone polymer', 'PLQ', 'Artra (Salt/Mix)', '1, 4-Benzenediol', 'HYDROP', '.alpha.-Hydroquinone', 'phenol derivative, 4', '4-hydroxyphenyl alcohol', 'Spectrum_001757', '4e3h', 'ACMC-209aok', 'SpecPlus_000769', '1,4-Dihydrobenzoquinone', 'ELDOQUIN (TN)', 'hydroquinone for synthesis', 'Spectrum2_001672', 'Spectrum3_000656', 'Spectrum4_000633', 'Spectrum5_001430', 'Lopac-H-9003', '1,2 BENZOLDIOL', 'WLN: QR DQ', 'bmse000293', 'Epitope ID:116206', 'EC 204-617-8', 'Lopac0_000577', 'SCHEMBL15516', 'BSPBio_002291', 'KBioGR_001246', 'KBioSS_002237', '1,4-Dihydroxybenzene, XIII', 'Hydroquinone-1,4-Benzenediol', 'MLS000069815', 'MLS001074911', 'BIDD:ER0340', 'DivK1c_006865', 'Hydroquinone, LR, >=99%', 'SPECTRUM1504237', 'Hydrochinon(CZECH, POLISH)', 'SPBio_001883', 'BDBM26190', 'Hydroquinone, puriss., 99.0%', 'KBio1_001809', 'KBio2_002237', 'KBio2_004805', 'KBio2_007373', 'KBio3_001511', 'NSC9247', 'Benzene-1,4-diol (Hydroquinone)', 'HMS1922H15', 'HMS2093E08', 'HMS3261D16', 'LABOTEST-BB LTBB001931', 'Pharmakon1600-01504237', 'HY-B0951', 'ZINC5133378', 'Tox21_110169', 'Tox21_202345', 'Tox21_300015', 'Tox21_500577', 'BBL011606', 'CCG-39082', 'NSC758707', 's4580', 'STK397446', 'AKOS000119003', 'Tox21_110169_1', 'AM10548', 'AS00174', 'DB09526', 'LP00577', 'MCULE-3953269041', 'NSC-758707', 'SDCCGSBI-0050559.P003', 'UN 2662', 'Hydroquinone, ReagentPlus(R), >=99%', 'Hydroquinone, USP, 99.0-100.5%', 'NCGC00015523-01', 'NCGC00015523-03', 'NCGC00015523-04', 'NCGC00015523-05', 'NCGC00015523-06', 'NCGC00015523-07', 'NCGC00015523-08', 'NCGC00015523-09', 'NCGC00015523-10', 'NCGC00015523-11', 'NCGC00015523-12', 'NCGC00015523-13', 'NCGC00015523-19', 'NCGC00090880-01', 'NCGC00090880-02', 'NCGC00090880-03', 'NCGC00090880-04', 'NCGC00090880-05', 'NCGC00254037-01', 'NCGC00259894-01', 'NCGC00261262-01', 'BP-21160', 'DA-33570', 'Hydroquinone, ReagentPlus(R), >=99.5%', 'SBI-0050559.P002', 'Hydroquinone, SAJ first grade, >=99.0%', 'EU-0100577', 'FT-0606877', 'H0186', 'Hydroquinone, SAJ special grade, >=99.0%', 'Hydroquinone, meets USP testing specifications', 'C00530', 'D00073', 'H 9003', '19538-EP2272837A1', '19538-EP2284165A1', '19538-EP2302015A1', '19538-EP2305825A1', '19538-EP2309584A1', '19538-EP2311804A2', '19538-EP2314576A1', '19538-EP2314579A1', '19538-EP2314584A1', '19538-EP2315303A1', '19538-EP2371803A1', '19538-EP2377843A1', '97871-EP2305685A1', 'AB00053361_08', '122680-EP2295053A1', 'Q419164', 'J-004910', 'J-521469', 'SR-01000075920-1', 'SR-01000075920-4', 'Q27102742', 'Z57127551', '094CADDB-59BF-4EDF-B278-59791B203EA2', 'F1908-0167', 'Hydroquinone, certified reference material, TraceCERT(R)', 'Hydroquinone, United States Pharmacopeia (USP) Reference Standard', 'Hydroquinone, Pharmaceutical Secondary Standard; Certified Reference Material']"
73;hydroperoxymethane;-1;CH4O2;48.041;COO;18199;369.2;-97.8;;;;-5.3;-7.3;-5.7;-5.9;11.5;;;;['Methyl hydroperoxide', 'hydroperoxymethane', '3031-73-0', 'CCRIS 4486', 'CH3OOH', 'methanol oxide', 'Hydroperoxide, methyl', 'Hydroperoxide, methyl(9CI)', 'DTXSID10184401', 'FT-0774948']
74;hydroperoxyethane;-1;C2H6O2;62.07;CCOO;62472;368.4;-96.6;;;;-5.3;-7.4;-6.0;-6.2;11.8;;;;['ETHYL HYDROPEROXIDE', 'hydroperoxyethane', '3031-74-1', 'UNII-08608DV9AD', '08608DV9AD', 'CCRIS 4487', 'EINECS 221-211-6', 'ethoxyalcohol', 'ethanol oxide', 'Ethyl oxyhydrate', 'DTXSID70184402', 'Q27236368']
75;acetaldehyde;-1;C2H4O;44.05;CC=O;177;362.2;-82.2;;;;-3.5;-3.9;-4.2;-3.9;16.5;;;;['acetaldehyde', 'ethanal', '75-07-0', 'acetic aldehyde', 'ethyl aldehyde', 'Acetaldehyd', 'aldehyde', 'Acetylaldehyde', 'Acetic ethanol', 'Aldeide acetica', 'Octowy aldehyd', 'Aldehyde acetique', 'Azetaldehyd', 'RCRA waste number U001', 'Acetaldehyde (natural)', 'NSC 7594', 'NCI-C56326', 'ACETYL GROUP', 'acetaldehydes', 'ethaldehyde', 'ethanone', 'CCRIS 1396', 'HSDB 230', 'UNII-GO1N1ZPR3B', 'MFCD00006991', 'UN1089', 'CHEBI:15343', 'AI3-31167', 'CH3CHO', 'GO1N1ZPR3B', '1-oxapropylene', 'Acetaldehyd [German]', 'Ethylaldehyde', 'Octowy aldehyd [Polish]', 'Aldeide acetica [Italian]', 'Aldehyde acetique [French]', 'FEMA No. 2003', 'EINECS 200-836-8', 'RCRA waste no. U001', 'Acetaldehyde, >=99%, meets FCC analytical specification', 'acetaldhyde', 'acetoaldehyde', 'Acetaldeyde', 'acetic hydride', 'ethan-1-one', 'Acetaldehyde 10%', 'MeCHO', 'Acetaldehyde Natural', 'ACETALD', 'ACMC-20alvc', 'Acetaldehyde-[13C]', 'Acetaldehyde polymerized', 'DSSTox_CID_2', 'CH2CHO', 'NATURAL ALDEFRESH', 'Oxidized polyvinyl alcohol', 'bmse000647', 'Epitope ID:145667', 'EC 200-836-8', 'WLN: VH1', 'DSSTox_RID_79423', 'oxidised poly(vinyl alcohol)', 'an oxidized polyvinyl alcohol', 'DSSTox_GSID_39224', 'Acetaldehyde, >=99%, FG', 'BIDD:ER0621', 'Acetaldehyde, >=99%, FCC', 'CHEMBL170365', 'GTPL6277', 'DTXSID5039224', 'Acetaldehyde, analytical standard', 'CHEBI:16571', 'NSC7594', 'Acetaldehyde solution, 5 M in THF', 'NSC-7594', 'STR01382', 'Tox21_202479', 'Acetaldehyde, natural, >=99%, FG', 'Acetaldehyde, ReagentPlus(R), 99%', 'STL264249', 'AKOS000120180', 'MCULE-6800925955', 'UN 1089', 'Acetaldehyde, ACS reagent, >=99.5%', 'CAS-75-07-0', 'Acetaldehyde, >=99%, FCC, stabilized', 'NCGC00091753-01', 'NCGC00260028-01', 'Acetaldehyde solution, 40 wt. % in H2O', 'Acetaldehyde, >=90.0%, SAJ first grade', 'Acetaldehyde [UN1089]  [Flammable liquid]', 'Acetaldehyde solution, 50 wt. % in ethanol', 'FT-0621719', 'FT-0660962', 'Acetaldehyde solution, 50 wt. % (triacetin)', '4998-EP0930075A1', '4998-EP1441224A2', '4998-EP2269979A1', '4998-EP2269988A2', '4998-EP2269989A1', '4998-EP2269992A1', '4998-EP2270004A1', '4998-EP2270005A1', '4998-EP2270010A1', '4998-EP2270011A1', '4998-EP2270014A1', '4998-EP2270113A1', '4998-EP2270114A1', '4998-EP2272491A1', '4998-EP2272517A1', '4998-EP2272813A2', '4998-EP2272825A2', '4998-EP2272826A1', '4998-EP2272831A1', '4998-EP2272832A1', '4998-EP2272834A1', '4998-EP2272839A1', '4998-EP2272840A1', '4998-EP2272843A1', '4998-EP2272848A1', '4998-EP2272935A1', '4998-EP2272972A1', '4998-EP2272973A1', '4998-EP2275102A1', '4998-EP2275105A1', '4998-EP2275395A2', '4998-EP2275404A1', '4998-EP2275409A1', '4998-EP2275411A2', '4998-EP2275412A1', '4998-EP2277848A1', '4998-EP2277865A1', '4998-EP2277872A1', '4998-EP2277878A1', '4998-EP2277880A1', '4998-EP2280000A1', '4998-EP2280002A1', '4998-EP2280006A1', '4998-EP2280007A1', '4998-EP2280008A2', '4998-EP2280012A2', '4998-EP2281812A1', '4998-EP2281824A1', '4998-EP2284146A2', '4998-EP2284147A2', '4998-EP2284148A1', '4998-EP2284157A1', '4998-EP2284160A1', '4998-EP2286812A1', '4998-EP2286915A2', '4998-EP2287147A2', '4998-EP2287153A1', '4998-EP2287158A1', '4998-EP2287159A1', '4998-EP2287165A2', '4998-EP2287166A2', '4998-EP2289868A1', '4998-EP2289871A1', '4998-EP2289882A1', '4998-EP2289890A1', '4998-EP2289893A1', '4998-EP2289894A2', '4998-EP2292227A2', '4998-EP2292576A2', '4998-EP2292586A2', '4998-EP2292589A1', '4998-EP2292593A2', '4998-EP2292610A1', '4998-EP2292620A2', '4998-EP2295401A2', '4998-EP2295407A1', '4998-EP2295411A1', '4998-EP2295414A1', '4998-EP2295418A1', '4998-EP2295426A1', '4998-EP2295427A1', '4998-EP2295433A2', '4998-EP2295434A2', '4998-EP2295435A1', '4998-EP2295437A1', '4998-EP2295439A1', '4998-EP2298312A1', '4998-EP2298734A2', '4998-EP2298736A1', '4998-EP2298744A2', '4998-EP2298749A1', '4998-EP2298757A2', '4998-EP2298758A1', '4998-EP2298759A1', '4998-EP2298767A1', '4998-EP2298770A1', '4998-EP2298775A1', '4998-EP2298778A1', '4998-EP2298780A1', '4998-EP2298783A1', '4998-EP2299509A1', '4998-EP2301544A1', '4998-EP2301911A1', '4998-EP2301912A2', '4998-EP2301916A2', '4998-EP2301927A1', '4998-EP2301929A1', '4998-EP2301930A1', '4998-EP2301931A1', '4998-EP2301933A1', '4998-EP2301935A1', '4998-EP2301940A1', '4998-EP2302382A2', '4998-EP2302383A2', '4998-EP2305250A1', '4998-EP2305627A1', '4998-EP2305629A1', '4998-EP2305633A1', '4998-EP2305648A1', '4998-EP2305652A2', '4998-EP2305660A1', '4998-EP2305664A1', '4998-EP2305668A1', '4998-EP2305672A1', '4998-EP2305674A1', '4998-EP2305677A1', '4998-EP2305679A1', '4998-EP2305682A1', '4998-EP2305684A1', '4998-EP2305685A1', '4998-EP2305686A1', '4998-EP2305687A1', '4998-EP2305808A1', '4998-EP2305825A1', '4998-EP2308562A2', '4998-EP2308833A2', '4998-EP2308838A1', '4998-EP2308840A1', '4998-EP2308841A2', '4998-EP2308844A2', '4998-EP2308845A2', '4998-EP2308846A2', '4998-EP2308848A1', '4998-EP2308850A1', '4998-EP2308851A1', '4998-EP2308852A1', '4998-EP2308861A1', '4998-EP2308867A2', '4998-EP2308870A2', '4998-EP2308872A1', '4998-EP2308874A1', '4998-EP2308879A1', '4998-EP2308882A1', '4998-EP2308883A1', '4998-EP2308960A1', '4998-EP2311796A1', '4998-EP2311797A1', '4998-EP2311798A1', '4998-EP2311799A1', '4998-EP2311801A1', '4998-EP2311802A1', '4998-EP2311803A1', '4998-EP2311806A2', '4998-EP2311808A1', '4998-EP2311818A1', '4998-EP2311820A1', '4998-EP2311822A1', '4998-EP2311827A1', '4998-EP2311829A1', '4998-EP2311830A1', '4998-EP2311837A1', '4998-EP2311841A1', '4998-EP2311842A2', '4998-EP2314295A1', '4998-EP2314574A1', '4998-EP2314576A1', '4998-EP2314579A1', '4998-EP2314587A1', '4998-EP2316470A2', '4998-EP2316824A1', '4998-EP2316825A1', '4998-EP2316826A1', '4998-EP2316829A1', '4998-EP2316831A1', '4998-EP2316832A1', '4998-EP2316833A1', '4998-EP2316836A1', '4998-EP2316974A1', '4998-EP2371811A2', '4998-EP2371814A1', '4998-EP2372017A1', '4998-EP2374454A1', '4998-EP2374780A1', '4998-EP2374781A1', '4998-EP2374783A1', '4998-EP2374788A1', '4998-EP2377841A1', '4998-EP2377844A2', '4998-EP2380871A1', 'C00084', 'D78540', 'Q61457', '21553-EP2287165A2', '21553-EP2314295A1', '21553-EP2314574A1', '26915-EP2280009A1', '26915-EP2305662A1', '26915-EP2308857A1', '26915-EP2314583A1', '37566-EP2277867A2', '37566-EP2280003A2', '37566-EP2281820A2', '37566-EP2284157A1', '37566-EP2286811A1', '37566-EP2287159A1', '37566-EP2292227A2', '37566-EP2298746A1', '37566-EP2298750A1', '37566-EP2298754A1', '37566-EP2298758A1', '37566-EP2298759A1', '37566-EP2298763A1', '37566-EP2298778A1', '37566-EP2305664A1', '37566-EP2305682A1', '37566-EP2308861A1', '37566-EP2308879A1', '37566-EP2311802A1', '37566-EP2311803A1', '37566-EP2311840A1', '37566-EP2374783A1', '37566-EP2377841A1', '37566-EP2377842A1', '37566-EP2380874A2', 'Acetaldehyde solution, 40 wt. % in isopropanol', 'Acetaldehyde, ReagentPlus(R), >=99.0% (GC)', '108796-EP2277864A1', '108796-EP2280002A1', '108796-EP2298305A1', '108796-EP2298769A1', '170111-EP2275413A1', '170111-EP2287156A1', 'A838317', 'ACETALDEHYDE SOLUTION,  40 WT. % IN H2O', 'Acetaldehyde solution, natural, 50 wt. % in ethanol', 'BRD-K77914232-001-01-3', 'Q57695648', 'Acetaldehyde solution, natural, 50 wt. % ethanol, FG', 'Acetaldehyde, puriss. p.a., anhydrous, >=99.5% (GC)', 'F2190-0651', 'Acetaldehyde, United States Pharmacopeia (USP) Reference Standard', 'Acetaldehyde solution, natural, 50 wt. % in ethanol, analytical standard']