Number;IUPAC_name;Charge;Molecular Formula;Molecular Weight [g/mol];Isomeric SMILES;Pubchem CID;GasPhaseAcidity_B2PLYP//DLPNO-CCSD(T) [kcal/mol];GSolv_Ion_Water [kcal/mol];GSolv_Ion_DMSO [kcal/mol];GSolv_Ion_Acetonitrile [kcal/mol];GSolv_Ion_MeOH [kcal/mol];Gsolv_Neutral_Water_exp [kcal/mol];Gsolv_Neutral_DMSO_TZVPD-Fine [kcal/mol];Gsolv_Neutral_Acetonitrile_TZVPD-Fine [kcal/mol];Gsolv_Neutral_MeOH_TZVPD-Fine [kcal/mol];pka_water;pka_DMSO;pka_Acetonitrile;pka_MeOH;Synonyms
33;quinoline;1;C9H7N;129.16;C1=CC=C2C(=C1)C=CC=N2;7047;220.1;-53.1;;;-57.1;-5.7;-8.2;-8.3;-9.1;4.8;;;5.2;['QUINOLINE', '91-22-5', 'Chinolin', 'Chinoline', 'Quinolin', '1-Benzazine', '1-Azanaphthalene', 'Chinoleine', 'Leucol', 'Benzo[b]pyridine', 'Benzopyridine', 'Leukol', '2,3-Benzopyridine', 'Benzo(b)pyridine', 'Leucoline', 'USAF EK-218', '1-Benzine', 'B 500', 'NSC 3396', 'Quinoline-8-D', 'CCRIS 547', 'FEMA No. 3470', 'HSDB 121', 'Quinoline (8CI,9CI)', 'UNII-E66400VT9R', 'Quinoline-2-D', 'Quinoline, homopolymer', 'CHEBI:17362', 'AI3-01241', 'B-500', 'CHEMBL14474', 'DTXSID1021798', 'E66400VT9R', 'DSSTox_CID_1798', 'Chinolin [Czech]', 'DSSTox_RID_76332', 'DSSTox_GSID_21798', 'Benzopyridine (VAN)', '15793-87-0', 'Quinoline-', 'CAS-91-22-5', 'UN2656', '31177-31-8', 'EINECS 202-051-6', 'hydroquinoline', 'Quinoline [UN2656] [Poison]', 'ACMC-20aimg', 'Quinoline, >=97%', 'Quinoline, >=99%', 'Quinoline > 90% grade', 'Epitope ID:140096', 'EC 202-051-6', '1-Hydro-3-dehydroquinoline', 'SCHEMBL2774', 'NCIOpen2_007906', 'WLN: T66 BNJ', 'MLS002303065', 'BIDD:ER0666', 'Quinoline, analytical standard', 'SCHEMBL483852', 'SCHEMBL1193639', 'SCHEMBL3311562', 'SCHEMBL8571823', 'Quinoline, reagent grade, 96%', 'Quinoline, reagent grade, 98%', 'FEMA 3470', 'NSC3396', 'Quinoline, redistilled from glass', 'HMS2271F08', 'ZINC896153', 'Quinoline [UN2656]  [Poison]', 'Quinoline, for synthesis, 96.0%', 'AMY38997', 'NSC-3396', 'STR01546', 'Tox21_201478', 'Tox21_300068', 'BBL011390', 'BDBM50047015', 'MFCD00006736', 'MFCD06637409', 'MFCD31699982', 'MFCD31699983', 'MFCD31699984', 'MFCD31699985', 'MFCD31699986', 'MFCD31699987', 's6369', 'STL146493', 'Quinoline 500 microg/mL in Methanol', 'AKOS000119139', 'ZINC328579131', 'MCULE-2825394284', 'UN 2656', 'NCGC00091190-01', 'NCGC00091190-02', 'NCGC00091190-03', 'NCGC00091190-04', 'NCGC00254119-01', 'NCGC00259029-01', 'Quinoline, SAJ first grade, >=94.0%', 'SMR000112309', 'SY246281', 'SY246328', 'SY246329', 'SY246330', 'SY246331', 'SY246332', 'SY246333', 'Quinoline, JIS special grade, >=95.0%', 'DB-057248', 'FT-0602839', 'Q0011', 'Q0085', '5730-EP2269978A2', '5730-EP2269985A2', '5730-EP2269989A1', '5730-EP2269991A2', '5730-EP2270000A1', '5730-EP2270004A1', '5730-EP2270008A1', '5730-EP2270010A1', '5730-EP2270113A1', '5730-EP2270505A1', '5730-EP2272517A1', '5730-EP2272537A2', '5730-EP2272813A2', '5730-EP2272828A1', '5730-EP2272832A1', '5730-EP2272837A1', '5730-EP2272843A1', '5730-EP2272849A1', '5730-EP2272935A1', '5730-EP2272972A1', '5730-EP2272973A1', '5730-EP2274983A1', '5730-EP2275395A2', '5730-EP2275401A1', '5730-EP2275409A1', '5730-EP2275411A2', '5730-EP2275412A1', '5730-EP2277858A1', '5730-EP2277872A1', '5730-EP2277877A1', '5730-EP2280000A1', '5730-EP2280009A1', '5730-EP2280013A1', '5730-EP2281563A1', '5730-EP2281815A1', '5730-EP2281817A1', '5730-EP2281818A1', '5730-EP2281824A1', '5730-EP2284150A2', '5730-EP2284151A2', '5730-EP2284152A2', '5730-EP2284153A2', '5730-EP2284155A2', '5730-EP2284156A2', '5730-EP2284157A1', '5730-EP2284158A1', '5730-EP2284159A1', '5730-EP2284164A2', '5730-EP2284169A1', '5730-EP2284174A1', '5730-EP2284920A1', '5730-EP2285800A1', '5730-EP2287140A2', '5730-EP2287148A2', '5730-EP2287150A2', '5730-EP2287155A1', '5730-EP2287161A1', '5730-EP2287162A1', '5730-EP2287165A2', '5730-EP2287166A2', '5730-EP2289871A1', '5730-EP2289877A1', '5730-EP2289890A1', '5730-EP2289891A2', '5730-EP2289892A1', '5730-EP2292586A2', '5730-EP2292590A2', '5730-EP2292592A1', '5730-EP2292593A2', '5730-EP2292601A1', '5730-EP2292602A1', '5730-EP2292603A1', '5730-EP2292604A2', '5730-EP2292611A1', '5730-EP2292617A1', '5730-EP2292618A1', '5730-EP2292620A2', '5730-EP2292630A1', '5730-EP2293650A1', '5730-EP2295419A2', '5730-EP2295421A1', '5730-EP2295429A1', '5730-EP2295432A1', '5730-EP2295433A2', '5730-EP2298305A1', '5730-EP2298731A1', '5730-EP2298732A1', '5730-EP2298737A1', '5730-EP2298739A1', '5730-EP2298740A1', '5730-EP2298741A1', '5730-EP2298746A1', '5730-EP2298750A1', '5730-EP2298755A1', '5730-EP2298756A1', '5730-EP2298761A1', '5730-EP2298763A1', '5730-EP2298767A1', '5730-EP2298770A1', '5730-EP2298771A2', '5730-EP2298776A1', '5730-EP2299785A1', '5730-EP2301536A1', '5730-EP2301538A1', '5730-EP2301544A1', '5730-EP2301912A2', '5730-EP2301913A1', '5730-EP2301914A1', '5730-EP2301916A2', '5730-EP2301918A1', '5730-EP2301920A1', '5730-EP2301923A1', '5730-EP2301930A1', '5730-EP2301933A1', '5730-EP2301937A1', '5730-EP2305219A1', '5730-EP2305250A1', '5730-EP2305254A1', '5730-EP2305637A2', '5730-EP2305640A2', '5730-EP2305643A1', '5730-EP2305648A1', '5730-EP2305649A1', '5730-EP2305651A1', '5730-EP2305652A2', '5730-EP2305658A1', '5730-EP2305668A1', '5730-EP2305677A1', '5730-EP2305688A1', '5730-EP2305695A2', '5730-EP2305696A2', '5730-EP2305697A2', '5730-EP2305698A2', '5730-EP2305808A1', '5730-EP2306788A1', '5730-EP2306789A1', '5730-EP2308510A1', '5730-EP2308562A2', '5730-EP2308832A1', '5730-EP2308838A1', '5730-EP2308840A1', '5730-EP2308843A1', '5730-EP2308848A1', '5730-EP2308849A1', '5730-EP2308850A1', '5730-EP2308854A1', '5730-EP2308861A1', '5730-EP2308863A1', '5730-EP2308882A1', '5730-EP2308926A1', '5730-EP2309564A1', '5730-EP2311455A1', '5730-EP2311796A1', '5730-EP2311797A1', '5730-EP2311798A1', '5730-EP2311799A1', '5730-EP2311825A1', '5730-EP2311826A2', '5730-EP2311827A1', '5730-EP2311842A2', '5730-EP2314558A1', '5730-EP2314575A1', '5730-EP2314576A1', '5730-EP2314583A1', '5730-EP2314587A1', '5730-EP2315303A1', '5730-EP2315502A1', '5730-EP2316452A1', '5730-EP2316459A1', '5730-EP2316470A2', '5730-EP2316832A1', '5730-EP2316833A1', '5730-EP2316905A1', '5730-EP2316906A2', '5730-EP2371810A1', '5730-EP2371811A2', '5730-EP2371812A1', '5730-EP2371831A1', '5730-EP2372804A1', '5730-EP2378585A1', 'C06413', 'D97671', 'AE-641/01960007', 'Q408384', 'J-524185', 'F0001-2218', 'Z1258578262']
34;piperazine;1;C4H10N2;86.14;C1CNCCN1;4837;219.7;-62.0;;;;-7.4;-6.1;-6.4;-10.0;9.7;;;;['piperazine', '110-85-0', 'Diethylenediamine', 'Piperazin', '1,4-Diazacyclohexane', 'Hexahydropyrazine', 'Piperazidine', 'Antiren', '1,4-Piperazine', 'Diethyleneimine', 'Eraverm', 'Pipersol', 'Dispermine', 'Lumbrical', 'Wurmirazin', 'Uvilon', 'Piperazine, anhydrous', 'Vermex', '1,4-Diethylenediamine', 'Worm-A-Ton', 'Asca-Trol No. 3', 'Pyrazine hexahydride', 'Hexahydro-1,4-diazine', 'Pyrazine, hexahydro-', 'Vermizine (TN)', 'Piperazine (USP)', 'NSC 474', 'UNII-1RTM4PAL0V', 'MFCD00005953', 'Piperazine [USP]', 'Piperazine, homopolymer', '1RTM4PAL0V', 'NSC474', 'CHEBI:28568', 'Piperazine anhydrous', 'Eraverm (VAN)', 'Piperazin [German]', 'NCGC00094762-03', 'Upixon', 'DSSTox_CID_1164', 'DSSTox_RID_75986', 'DSSTox_GSID_21164', 'Piperazin [Germany]', '1323940-30-2', '31977-51-2', 'Anhydrous piperazine', 'CAS-110-85-0', 'PZE', 'CCRIS 5950', 'HSDB 1093', 'EINECS 203-808-3', 'UN2579', 'BRN 0102555', 'piperizine', 'piperzine', 'piprazine', 'exahydropyrazine', 'Piperazine-', '7-piperazine', '4-diazacyclohexane', 'Piperazine, 99%', 'Tasnon (Salt/Mix)', 'Exelmin (Salt/Mix)', '525586-93-0', 'Vermidol (Salt/Mix)', 'Vermizine (Salt/Mix)', 'Spectrum_001113', 'ACMC-1AWXD', 'Spectrum5_001817', 'WLN: T6M DMTJ', 'EC 203-808-3', 'Piperazine, p.a., 98%', 'CHEMBL1412', 'NCIOpen2_000984', 'NCIOpen2_000988', 'NCIOpen2_001024', 'NCIOpen2_001031', 'NCIOpen2_001033', 'NCIOpen2_001071', 'NCIOpen2_001073', 'NCIOpen2_001111', 'NCIOpen2_001151', 'NCIOpen2_001231', 'NCIOpen2_001262', 'NCIOpen2_001269', 'NCIOpen2_004830', 'NCIOpen2_004834', 'NCIOpen2_004862', 'NCIOpen2_004874', 'NCIOpen2_004904', 'NCIOpen2_004910', 'NCIOpen2_004914', 'NCIOpen2_004942', 'NCIOpen2_004952', 'NCIOpen2_004954', 'NCIOpen2_004982', 'NCIOpen2_004992', 'NCIOpen2_004994', 'NCIOpen2_005022', 'NCIOpen2_005032', 'NCIOpen2_005034', 'NCIOpen2_005062', 'NCIOpen2_005072', 'NCIOpen2_005102', 'NCIOpen2_005108', 'NCIOpen2_005145', 'NCIOpen2_005182', 'NCIOpen2_005185', 'NCIOpen2_005187', 'NCIOpen2_005200', 'NCIOpen2_005575', 'NCIOpen2_005980', 'NCIOpen2_009422', 'KBioSS_001593', '5-23-01-00030 (Beilstein Handbook Reference)', 'BIDD:GT0273', 'DivK1c_000038', 'SPECTRUM1500490', 'Piperazine, analytical standard', 'DTXSID1021164', 'HMS500B20', 'KBio1_000038', 'KBio2_001593', 'KBio2_004161', 'KBio2_006729', 'NSC-474', 'MANGANESE(II)SILICOFLUORIDE', 'NINDS_000038', 'HMS1920H20', 'HMS2092A03', 'HMS3885L08', 'Pharmakon1600-01500490', 'ACT02177', 'BCP24060', 'HY-B0912', 'Piperazine, ReagentPlus(R), 99%', 'STR00051', 'ZINC5850277', 'Tox21_113564', 'Tox21_202242', 'Tox21_300104', 'BBL019924', 'NSC757283', 's4574', 'STL169348', 'Piperazine [UN2579]  [Corrosive]', 'Piperazine-[U-13C4] dihydrochloride', 'AKOS000269028', 'CCG-212753', 'CS-4381', 'DB00592', 'LF-0561', 'MCULE-5522245554', 'NSC-757283', 'Piperazine-[U-2,3,5,6-13C4]', 'UN 2579', 'IDI1_000038', 'NCGC00094762-01', 'NCGC00094762-02', 'NCGC00094762-04', 'NCGC00094762-05', 'NCGC00094762-08', 'NCGC00254077-01', 'NCGC00259791-01', 'Piperazine, anhydrous, >=99.0% (T)', 'SBI-0051485.P003', 'FT-0673919', 'P0446', 'P0447', 'AZ0001-0086', '5726-EP2269610A2', '5726-EP2269977A2', '5726-EP2269993A1', '5726-EP2270002A1', '5726-EP2270006A1', '5726-EP2270010A1', '5726-EP2272509A1', '5726-EP2272517A1', '5726-EP2272813A2', '5726-EP2272841A1', '5726-EP2272935A1', '5726-EP2272972A1', '5726-EP2272973A1', '5726-EP2275395A2', '5726-EP2275401A1', '5726-EP2275404A1', '5726-EP2275411A2', '5726-EP2275412A1', '5726-EP2275420A1', '5726-EP2275421A1', '5726-EP2277848A1', '5726-EP2277858A1', '5726-EP2277867A2', '5726-EP2277872A1', '5726-EP2277876A1', '5726-EP2277877A1', '5726-EP2277880A1', '5726-EP2280003A2', '5726-EP2280005A1', '5726-EP2280006A1', '5726-EP2280008A2', '5726-EP2280009A1', '5726-EP2280010A2', '5726-EP2281563A1', '5726-EP2281810A1', '5726-EP2281813A1', '5726-EP2281815A1', '5726-EP2281818A1', '5726-EP2281819A1', '5726-EP2281821A1', '5726-EP2284149A1', '5726-EP2284157A1', '5726-EP2284159A1', '5726-EP2284160A1', '5726-EP2287163A1', '5726-EP2289510A1', '5726-EP2289868A1', '5726-EP2289883A1', '5726-EP2289884A1', '5726-EP2289887A2', '5726-EP2289888A2', '5726-EP2289894A2', '5726-EP2292586A2', '5726-EP2292593A2', '5726-EP2292606A1', '5726-EP2292610A1', '5726-EP2292611A1', '5726-EP2292614A1', '5726-EP2292619A1', '5726-EP2292624A1', '5726-EP2292630A1', '5726-EP2295399A2', '5726-EP2295402A2', '5726-EP2295407A1', '5726-EP2295409A1', '5726-EP2295426A1', '5726-EP2295427A1', '5726-EP2295429A1', '5726-EP2295432A1', '5726-EP2295433A2', '5726-EP2295437A1', '5726-EP2295438A1', '5726-EP2298731A1', '5726-EP2298734A2', '5726-EP2298736A1', '5726-EP2298738A1', '5726-EP2298743A1', '5726-EP2298755A1', '5726-EP2298763A1', '5726-EP2298766A1', '5726-EP2298767A1', '5726-EP2298772A1', '5726-EP2298775A1', '5726-EP2298778A1', '5726-EP2298783A1', '5726-EP2300432A1', '5726-EP2301928A1', '5726-EP2301936A1', '5726-EP2301937A1', '5726-EP2305219A1', '5726-EP2305250A1', '5726-EP2305646A1', '5726-EP2305648A1', '5726-EP2305651A1', '5726-EP2305657A2', '5726-EP2305659A1', '5726-EP2305672A1', '5726-EP2305677A1', '5726-EP2305678A1', '5726-EP2305679A1', '5726-EP2305682A1', '5726-EP2305684A1', '5726-EP2305687A1', '5726-EP2308510A1', '5726-EP2308562A2', '5726-EP2308812A2', '5726-EP2308838A1', '5726-EP2308839A1', '5726-EP2308840A1', '5726-EP2308848A1', '5726-EP2308854A1', '5726-EP2308857A1', '5726-EP2308867A2', '5726-EP2308870A2', '5726-EP2308872A1', '5726-EP2308873A1', '5726-EP2308875A1', '5726-EP2308879A1', '5726-EP2309584A1', '5726-EP2311464A1', '5726-EP2311808A1', '5726-EP2311814A1', '5726-EP2311818A1', '5726-EP2311824A1', '5726-EP2311828A1', '5726-EP2311829A1', '5726-EP2311831A1', '5726-EP2311842A2', '5726-EP2314295A1', '5726-EP2314574A1', '5726-EP2314575A1', '5726-EP2314584A1', '5726-EP2314586A1', '5726-EP2314587A1', '5726-EP2314588A1', '5726-EP2314590A1', '5726-EP2315760A1', '5726-EP2316457A1', '5726-EP2316458A1', '5726-EP2316470A2', '5726-EP2316825A1', '5726-EP2316826A1', '5726-EP2316827A1', '5726-EP2316828A1', '5726-EP2316829A1', '5726-EP2316831A1', '5726-EP2316832A1', '5726-EP2316833A1', '5726-EP2316836A1', '5726-EP2371811A2', '5726-EP2371831A1', '5726-EP2372804A1', '5726-EP2374895A1', '5726-EP2378585A1', 'C07973', 'D00807', '10847-EP2284160A1', '10847-EP2284166A1', '10847-EP2292589A1', '10847-EP2295439A1', '10847-EP2301928A1', '10847-EP2305651A1', '10847-EP2308852A1', '10847-EP2308854A1', '10847-EP2316827A1', '10847-EP2316828A1', 'AB00052073_03', '164557-EP2281899A2', '164557-EP2287167A1', 'Piperazine, BioUltra, anhydrous, >=99.0% (T)', 'Q409292', 'SR-05000001700', 'Q-201586', 'SR-05000001700-1', 'F0001-0226', 'Z1245537944', 'Piperazine, United States Pharmacopeia (USP) Reference Standard']
37;cyanamide;-1;CH2N2;42.04;C(#N)N;9864;343.6;-74.7;-73.1;;;-6.2;-13.7;-10.3;-11.2;10.3;16.9;;;"['CYANAMIDE', '420-04-2', 'Hydrogen cyanamide', 'Amidocyanogen', 'Carbamonitrile', 'Cyanoamine', 'Cyanogenamide', 'Cyanogen nitride', 'N-Cyanoamine', 'Alzogur', 'Dormex', 'H2NCN', 'TsAKS', 'Deurbraak', 'Cyanamide aq', 'NH2CN', 'USAF EK-1995', 'NSC 24133', 'H2N-C#N', 'UNII-21CP7826LC', 'Cyanamide, homopolymer', 'CHEBI:16698', '21CP7826LC', 'NCGC00164378-01', 'DSSTox_CID_14490', 'DSSTox_RID_79157', 'Cyanamide [JAN]', 'DSSTox_GSID_34490', 'Caswell No. 485A', 'MFCD00007572', '25300-84-9', 'CAS-420-04-2', 'HSDB 1550', '156-62-7', 'EINECS 206-992-3', 'EPA Pesticide Chemical Code 014002', 'BRN 1732569', 'cyanamine', 'Carbodiamide', 'cyano-amine', 'Cyanamide (TN)', 'Cyanamide, 99%', 'Cyanamide (JP17)', 'ACMC-209jmp', 'WLN: ZCN', 'bmse000656', 'H2NCN;', 'EC 206-992-3', 'CH2N2', 'Cyanamide-[13C,15N2]', '4-03-00-00145 (Beilstein Handbook Reference)', 'CHEMBL56279', 'DTXSID9034490', 'AMY6233', 's170', 'Cyanamide, 50% aqueous solution.', 'NSC24133', 'Tox21_112109', 'Tox21_300678', 'BBL027645', 'NSC-24133', 'NSC267195', 'STL281853', 'Cyanamide, 50% w/w aqueous solution', 'AKOS009031491', 'DB02679', 'EBD2224546', 'MCULE-9026610515', 'NSC-267195', 'Cyanamide solution, 50 wt. % in H2O', 'NCGC00164378-02', 'NCGC00164378-03', 'NCGC00254586-01', '2669-76-3', 'FT-0624124', 'FT-0665242', 'AZ0001-0434', 'C01566', 'D00123', 'Q414555', 'F8881-3984']"
38;aniline;-1;C6H7N;93.13;C1=CC=C(C=C1)N;6115;361.9;-68.6;-68.0;;;-5.5;-8.9;-8.1;-8.0;27.7;30.6;;;"['ANILINE', 'Benzenamine', '62-53-3', 'Phenylamine', 'Aminobenzene', 'Aminophen', 'Arylamine', 'Kyanol', 'Anilin', 'Cyanol', 'Benzeneamine', 'Benzidam', 'Krystallin', 'Anyvim', 'Aniline oil', 'Blue Oil', 'Anilina', 'C.I. Oxidation Base 1', ""Huile D'aniline"", 'Rcra waste number U012', 'C.I. 76000', 'Aniline reagent', 'UNII-SIR7XX2F1K', 'NCI-C03736', 'UN 1547', 'CHEBI:17296', 'MFCD00007629', 'SIR7XX2F1K', 'Benzene, amino', 'Anilin [Czech]', 'CI Oxidation Base 1', 'Caswell No. 051C', ""Huile d'aniline [French]"", 'HSDB 43', 'Phenyleneamine', ""D'aniline"", 'RCRA waste no. U012', 'Anilina [Italian, Polish]', 'CCRIS 44', 'Aniline and homologs', 'Aniline (and salts)', 'Aniline and homologues', 'Aniline oil, phenylamine', 'EINECS 200-539-3', 'UN1547', 'EPA Pesticide Chemical Code 251400', 'benzenaminium', 'cyanole', 'CI 76000', 'BIDD:ER0581', 'phenyl amine', 'phenyl-amine', 'AI3-03053', '8-aniline', 'Benzene, amino-', 'Fentanyl impurity F', '2-bromobenzylchloride', 'Aniline-[13C]', 'PhNH2', 'DSSTox_CID_90', 'ACMC-1AZO2', 'CHEMBL538', 'Epitope ID:117704', 'EC 200-539-3', 'Aniline, analytical standard', 'DSSTox_RID_75359', 'Aniline, AR, >=99%', 'Aniline, LR, >=99%', 'DSSTox_GSID_20090', 'C6H5NH2', 'DTXSID8020090', 'BDBM92572', 'Trimethoprim specified impurity K', 'Aniline, ReagentPlus(R), 99%', 'BENZENE,AMINO  (ANILINE)', 'Aniline [UN1547]  [Poison]', 'AMY11081', 'STR00216', 'Aniline, ACS reagent, >=99.5%', 'Tox21_200345', 'Aniline 10 microg/mL in Cyclohexane', 'STK301792', 'ZINC17886255', 'AKOS000268796', 'Aniline 100 microg/mL in Cyclohexane', 'DB06728', 'MCULE-9347486445', 'Aniline, ASTM, ACS reagent, 99.5%', 'Aniline, SAJ first grade, >=99.0%', 'CAS-62-53-3', 'Aniline, JIS special grade, >=99.0%', 'Aniline, p.a., ACS reagent, 99.0%', 'NCGC00091297-01', 'NCGC00091297-02', 'NCGC00091297-03', 'NCGC00257899-01', 'BP-12047', 'S667', 'Aniline, PESTANAL(R), analytical standard', 'DB-013441', 'A0463', 'FT-0622394', 'FT-0662220', 'FT-0696319', '9622-EP2269990A1', '9622-EP2270011A1', '9622-EP2272817A1', '9622-EP2272822A1', '9622-EP2272849A1', '9622-EP2275102A1', '9622-EP2275403A1', '9622-EP2275413A1', '9622-EP2276085A1', '9622-EP2277865A1', '9622-EP2277880A1', '9622-EP2277881A1', '9622-EP2279750A1', '9622-EP2280001A1', '9622-EP2280004A1', '9622-EP2280005A1', '9622-EP2280012A2', '9622-EP2280020A1', '9622-EP2280021A1', '9622-EP2281817A1', '9622-EP2281818A1', '9622-EP2284157A1', '9622-EP2284161A1', '9622-EP2284174A1', '9622-EP2284920A1', '9622-EP2287152A2', '9622-EP2287156A1', '9622-EP2289884A1', '9622-EP2289893A1', '9622-EP2289894A2', '9622-EP2292593A2', '9622-EP2292597A1', '9622-EP2292610A1', '9622-EP2295053A1', '9622-EP2295402A2', '9622-EP2295409A1', '9622-EP2295411A1', '9622-EP2295418A1', '9622-EP2295421A1', '9622-EP2295429A1', '9622-EP2295439A1', '9622-EP2295503A1', '9622-EP2298312A1', '9622-EP2298743A1', '9622-EP2298749A1', '9622-EP2298768A1', '9622-EP2298770A1', '9622-EP2298776A1', '9622-EP2298828A1', '9622-EP2301920A1', '9622-EP2301923A1', '9622-EP2301928A1', '9622-EP2301930A1', '9622-EP2301939A1', '9622-EP2301983A1', '9622-EP2302132A1', '9622-EP2305652A2', '9622-EP2305687A1', '9622-EP2305769A2', '9622-EP2305808A1', '9622-EP2308833A2', '9622-EP2308839A1', '9622-EP2308840A1', '9622-EP2308848A1', '9622-EP2308851A1', '9622-EP2308858A1', '9622-EP2308861A1', '9622-EP2308872A1', '9622-EP2308873A1', '9622-EP2308877A1', '9622-EP2308880A1', '9622-EP2311802A1', '9622-EP2311803A1', '9622-EP2311804A2', '9622-EP2311806A2', '9622-EP2311807A1', '9622-EP2311808A1', '9622-EP2311816A1', '9622-EP2311817A1', '9622-EP2311818A1', '9622-EP2311825A1', '9622-EP2311829A1', '9622-EP2311830A1', '9622-EP2314558A1', '9622-EP2314576A1', '9622-EP2314590A1', '9622-EP2314593A1', '9622-EP2315502A1', '9622-EP2316452A1', '9622-EP2316829A1', '9622-EP2316831A1', '9622-EP2371810A1', '9622-EP2371812A1', '9622-EP2372804A1', '9622-EP2378585A1', 'C00292', '12588-EP2272517A1', '12588-EP2272813A2', '12588-EP2275395A2', '12588-EP2275409A1', '12588-EP2275469A1', '12588-EP2276085A1', '12588-EP2284920A1', '12588-EP2287940A1', '12588-EP2289965A1', '12588-EP2292586A2', '12588-EP2292601A1', '12588-EP2292602A1', '12588-EP2292603A1', '12588-EP2292618A1', '12588-EP2293650A1', '12588-EP2295402A2', '12588-EP2295421A1', '12588-EP2298729A1', '12588-EP2298737A1', '12588-EP2298739A1', '12588-EP2298740A1', '12588-EP2298741A1', '12588-EP2298771A2', '12588-EP2298828A1', '12588-EP2299509A1', '12588-EP2299510A1', '12588-EP2301920A1', '12588-EP2301936A1', '12588-EP2301983A1', '12588-EP2305769A2', '12588-EP2308926A1', '12588-EP2309564A1', '12588-EP2311825A1', '12588-EP2311826A2', '12588-EP2314558A1', '12588-EP2315502A1', '12588-EP2316831A1', '12588-EP2371810A1', '12588-EP2371812A1', '12588-EP2371813A1', '12588-EP2372804A1', '12588-EP2378585A1', '85560-EP2281861A2', '85560-EP2298749A1', '85560-EP2305657A2', '147630-EP2289877A1', 'A833829', 'Q186414', 'SR-01000944923', 'J-519591', 'SR-01000944923-1', 'Q27121173', 'F2190-0417', 'Aniline, United States Pharmacopeia (USP) Reference Standard']"