Number;IUPAC_name;Charge;Molecular Formula;Molecular Weight [g/mol];Isomeric SMILES;Pubchem CID;GasPhaseAcidity_B2PLYP//DLPNO-CCSD(T) [kcal/mol];GSolv_Ion_Water [kcal/mol];GSolv_Ion_DMSO [kcal/mol];GSolv_Ion_Acetonitrile [kcal/mol];GSolv_Ion_MeOH [kcal/mol];Gsolv_Neutral_Water_exp [kcal/mol];Gsolv_Neutral_DMSO_TZVPD-Fine [kcal/mol];Gsolv_Neutral_Acetonitrile_TZVPD-Fine [kcal/mol];Gsolv_Neutral_MeOH_TZVPD-Fine [kcal/mol];pka_water;pka_DMSO;pka_Acetonitrile;pka_MeOH;Synonyms
31;1H-pyrrole;1;C4H5N;67.09;C1=CNC=C1;8027;201.1;-59.0;;;;-4.3;-8.3;-7.0;-7.0;-3.8;;;;['PYRROLE', '1H-Pyrrole', '109-97-7', 'Divinylenimine', 'Azole', 'Imidole', 'Pyrrol', 'Monopyrrole', 'Divinyleneimine', '1-Aza-2,4-cyclopentadiene', 'polypyrrole', 'UNII-86S1ZD6L2C', 'NSC 62777', 'PYROLLE', 'CHEBI:19203', '1H-Pyrrole, potassium salt', '86S1ZD6L2C', 'MFCD00005216', '30604-81-0', 'Pyrroles', 'FEMA No. 3386', 'CCRIS 2933', 'HSDB 119', 'EINECS 203-724-7', 'Pyrrhol', 'Pyrole', 'beta-pyrrole', 'a pyrrole', 'pyrrole-', 'AI3-18817', 'Pyrrole, Reagent', '1-H-pyrrole', '(1H-Pyrrole)x', '1-aza-cyclopentadiene', '1H-Pyrrole, homopolymer', 'DSSTox_CID_1910', 'Epitope ID:136031', 'WLN: T5MJ', 'Pyrrole, analytical standard', 'DSSTox_GSID_21910', 'CHEMBL16225', 'Pyrrole, reagent grade, 98%', 'QSPL 001', 'DTXSID5021910', 'FEMA 3386', 'Pyrrole, >=98%, FCC, FG', 'ACMC-209953', 'AMY40221', 'NSC62777', 'NSC72470', 'STR00296', 'ZINC1691362', 'EINECS 240-327-8', 'Tox21_303910', 'BBL011520', 'NSC-72470', 'STL146636', 'AKOS000120094', 'MCULE-7417495535', 'NSC 137782', 'NCGC00357161-01', 'BP-21154', 'CAS-109-97-7', 'S069', 'DB-003771', 'FT-0659051', 'P0574', 'AZ0001-0072', '5727-EP0930075A1', '5727-EP2269978A2', '5727-EP2269985A2', '5727-EP2269990A1', '5727-EP2269991A2', '5727-EP2270002A1', '5727-EP2270006A1', '5727-EP2270010A1', '5727-EP2270113A1', '5727-EP2270505A1', '5727-EP2272509A1', '5727-EP2272510A1', '5727-EP2272517A1', '5727-EP2272537A2', '5727-EP2272813A2', '5727-EP2272827A1', '5727-EP2272828A1', '5727-EP2272832A1', '5727-EP2272935A1', '5727-EP2272972A1', '5727-EP2272973A1', '5727-EP2275102A1', '5727-EP2275395A2', '5727-EP2275401A1', '5727-EP2275404A1', '5727-EP2275409A1', '5727-EP2275411A2', '5727-EP2275412A1', '5727-EP2275422A1', '5727-EP2277858A1', '5727-EP2277872A1', '5727-EP2277874A1', '5727-EP2280000A1', '5727-EP2280005A1', '5727-EP2280009A1', '5727-EP2280011A1', '5727-EP2281563A1', '5727-EP2281815A1', '5727-EP2281818A1', '5727-EP2281819A1', '5727-EP2281822A1', '5727-EP2281824A1', '5727-EP2283006A1', '5727-EP2283007A2', '5727-EP2283008A2', '5727-EP2283898A1', '5727-EP2284149A1', '5727-EP2284150A2', '5727-EP2284151A2', '5727-EP2284152A2', '5727-EP2284153A2', '5727-EP2284154A1', '5727-EP2284155A2', '5727-EP2284156A2', '5727-EP2284157A1', '5727-EP2284158A1', '5727-EP2284160A1', '5727-EP2284164A2', '5727-EP2284920A1', '5727-EP2287140A2', '5727-EP2287148A2', '5727-EP2287150A2', '5727-EP2287165A2', '5727-EP2287166A2', '5727-EP2287167A1', '5727-EP2289871A1', '5727-EP2289884A1', '5727-EP2289894A2', '5727-EP2292586A2', '5727-EP2292590A2', '5727-EP2292592A1', '5727-EP2292593A2', '5727-EP2292604A2', '5727-EP2292606A1', '5727-EP2292611A1', '5727-EP2292613A1', '5727-EP2292619A1', '5727-EP2292620A2', '5727-EP2292621A1', '5727-EP2292630A1', '5727-EP2295402A2', '5727-EP2295406A1', '5727-EP2295411A1', '5727-EP2295419A2', '5727-EP2295426A1', '5727-EP2295427A1', '5727-EP2295428A2', '5727-EP2295429A1', '5727-EP2295432A1', '5727-EP2295433A2', '5727-EP2295435A1', '5727-EP2295439A1', '5727-EP2295503A1', '5727-EP2298731A1', '5727-EP2298732A1', '5727-EP2298743A1', '5727-EP2298755A1', '5727-EP2298766A1', '5727-EP2298767A1', '5727-EP2298770A1', '5727-EP2298772A1', '5727-EP2298774A1', '5727-EP2298776A1', '5727-EP2298778A1', '5727-EP2301534A1', '5727-EP2301536A1', '5727-EP2301538A1', '5727-EP2301912A2', '5727-EP2301913A1', '5727-EP2301914A1', '5727-EP2301916A2', '5727-EP2301918A1', '5727-EP2301921A1', '5727-EP2301926A1', '5727-EP2301937A1', '5727-EP2305219A1', '5727-EP2305250A1', '5727-EP2305637A2', '5727-EP2305640A2', '5727-EP2305643A1', '5727-EP2305648A1', '5727-EP2305651A1', '5727-EP2305652A2', '5727-EP2305657A2', '5727-EP2305659A1', '5727-EP2305669A1', '5727-EP2305695A2', '5727-EP2305696A2', '5727-EP2305697A2', '5727-EP2305698A2', '5727-EP2308510A1', '5727-EP2308562A2', '5727-EP2308812A2', '5727-EP2308832A1', '5727-EP2308833A2', '5727-EP2308838A1', '5727-EP2308848A1', '5727-EP2308849A1', '5727-EP2308850A1', '5727-EP2308854A1', '5727-EP2308863A1', '5727-EP2308867A2', '5727-EP2308870A2', '5727-EP2308880A1', '5727-EP2308926A1', '5727-EP2309564A1', '5727-EP2311451A1', '5727-EP2311455A1', '5727-EP2311494A1', '5727-EP2311796A1', '5727-EP2311797A1', '5727-EP2311798A1', '5727-EP2311799A1', '5727-EP2311815A1', '5727-EP2311818A1', '5727-EP2311823A1', '5727-EP2311825A1', '5727-EP2311842A2', '5727-EP2314558A1', '5727-EP2314575A1', '5727-EP2314582A1', '5727-EP2314583A1', '5727-EP2314587A1', '5727-EP2315303A1', '5727-EP2316450A1', '5727-EP2316452A1', '5727-EP2316459A1', '5727-EP2316470A2', '5727-EP2316831A1', '5727-EP2316832A1', '5727-EP2316833A1', '5727-EP2316905A1', '5727-EP2316906A2', '5727-EP2371811A2', '5727-EP2371831A1', '5727-EP2372017A1', '5727-EP2372804A1', '5727-EP2378585A1', '5997-EP0930075A1', '5997-EP2295428A2', '5997-EP2308848A1', '5997-EP2316452A1', '5997-EP2374792A1', 'C19907', '10245-EP2270010A1', '10245-EP2272510A1', '10245-EP2274983A1', '10245-EP2281816A1', '10245-EP2292593A2', '10245-EP2295432A1', '10245-EP2299785A1', '10245-EP2305033A1', '10245-EP2306788A1', '10245-EP2306789A1', '10245-EP2308869A1', '10245-EP2314582A1', '10245-EP2316452A1', '10245-EP2377847A1', '88513-EP2298076A1', '88513-EP2298077A1', '88513-EP2301353A1', '88513-EP2305031A1', '88513-EP2305034A1', '88513-EP2305035A1', '96735-EP2305643A1', 'A802120', 'Q242627', 'Q-100054', 'F2190-0643', 'Z1245735179']
32;pyridine;1;C5H5N;79.1;C1=CC=NC=C1;1049;215.1;-57.7;-56.4;-68.5;-59.9;-4.7;-5.7;-5.8;-6.6;5.2;3.5;12.3;5.4;"['PYRIDINE', 'Azabenzene', '110-86-1', 'Azine', 'Pyridin', 'Piridina', 'Pirydyna', 'Pyridin [German]', 'Pirydyna [Polish]', 'Piridina [Italian]', 'RCRA waste number U196', 'NCI-C55301', 'CCRIS 2926', 'HSDB 118', 'pyridine-ring', 'pyridine-', 'CHEBI:16227', 'CP 32', 'UNII-NH9L3PP67S', 'EINECS 203-809-9', 'UN1282', 'NSC 406123', 'Pyridine, homopolymer', 'NH9L3PP67S', 'pyridine fraction', 'MFCD00011732', 'Pyridine [UN1282]  [Flammable liquid]', 'Caswell No. 717', 'FEMA Number 2966', 'Pyridine, ACS reagent, >=99.0%', 'Pyridine, ReagentPlus(R), >=99%', '25013-01-8', 'FEMA No. 2966', 'RCRA waste no. U196', 'EPA Pesticide Chemical Code 069202', 'hydropyridine', 'polypyridine', 'AI3-01240', 'N-pyridine', 'pyridine solution', '[pyridine]', '2-pyridine', '4-pyridine', '3-Pyridine', 'Pyridine anhydrous', 'Azabenzene; Azine', '0PY', 'Pyridine, anhydrous', 'Pyridine, 99%', 'Pyridine, ACS reagent', 'Pyridine, >=99%', 'Pyridine, HPLC Grade', 'DSSTox_CID_1924', '1-Hydro-3-dehydropyridine', 'bmse000432', 'Epitope ID:140099', 'WLN: T6NJ', 'EC 203-809-9', 'Pyridine, p.a., 99%', 'DSSTox_RID_76405', 'NCIOpen2_002809', 'NCIOpen2_007786', 'NCIOpen2_007866', 'NCIOpen2_007986', 'NCIOpen2_007999', 'DSSTox_GSID_21924', 'Pyridine, LR, >=99%', 'Pyridine, analytical standard', 'ACMC-20a483', 'Pyridine, anhydrous, 99.8%', 'CHEMBL266158', 'DTXSID9021924', 'Pyridine, AR, >=99.5%', 'Pyridine, >=99.5% (GC)', 'ZINC895354', 'BCP23599', 'Pyridine, for HPLC, >=99.9%', 'Tox21_200960', 'BDBM50176909', 'NSC141574', 'NSC406123', 'Pyridine, anhydrous Water 30ppm Max', 'STL264195', '1,4-Dihydropyridine-4-ylideneradical', 'AKOS000120998', 'MCULE-4028120692', 'NSC-141574', 'NSC-406123', 'Pyridine, biotech. grade, >=99.9%', 'UN 1282', 'NCGC00091476-01', 'NCGC00091476-02', 'NCGC00258513-01', 'Pyridine, SAJ first grade, >=99.0%', 'BP-13452', 'CAS-110-86-1', 'NCI60_006101', 'Pyridine, JIS special grade, >=99.5%', 'Pyridine, p.a., ACS reagent, 99.0%', 'Pyridine, purification grade, >=99.75%', 'Pyridine, spectrophotometric grade, >=99%', 'FT-0654216', 'FT-0658212', 'FT-0658683', 'Q0034', 'X4374', '1175-EP0930075A1', '1175-EP1441224A2', '1175-EP2269977A2', '1175-EP2269978A2', '1175-EP2269985A2', '1175-EP2269986A1', '1175-EP2269989A1', '1175-EP2269990A1', '1175-EP2269991A2', '1175-EP2269992A1', '1175-EP2269993A1', '1175-EP2270001A1', '1175-EP2270002A1', '1175-EP2270003A1', '1175-EP2270004A1', '1175-EP2270006A1', '1175-EP2270008A1', '1175-EP2270010A1', '1175-EP2270011A1', '1175-EP2270014A1', '1175-EP2270015A1', '1175-EP2270017A1', '1175-EP2270018A1', '1175-EP2270113A1', '1175-EP2270114A1', '1175-EP2270505A1', '1175-EP2272509A1', '1175-EP2272510A1', '1175-EP2272516A2', '1175-EP2272517A1', '1175-EP2272537A2', '1175-EP2272813A2', '1175-EP2272817A1', '1175-EP2272822A1', '1175-EP2272825A2', '1175-EP2272826A1', '1175-EP2272827A1', '1175-EP2272828A1', '1175-EP2272832A1', '1175-EP2272834A1', '1175-EP2272835A1', '1175-EP2272837A1', '1175-EP2272838A1', '1175-EP2272839A1', '1175-EP2272840A1', '1175-EP2272841A1', '1175-EP2272844A1', '1175-EP2272845A2', '1175-EP2272849A1', '1175-EP2272935A1', '1175-EP2272972A1', '1175-EP2272973A1', '1175-EP2274983A1', '1175-EP2275105A1', '1175-EP2275395A2', '1175-EP2275398A1', '1175-EP2275401A1', '1175-EP2275404A1', '1175-EP2275409A1', '1175-EP2275410A1', '1175-EP2275411A2', '1175-EP2275412A1', '1175-EP2275414A1', '1175-EP2275418A1', '1175-EP2275420A1', '1175-EP2275425A1', '1175-EP2277848A1', '1175-EP2277858A1', '1175-EP2277861A1', '1175-EP2277865A1', '1175-EP2277867A2', '1175-EP2277872A1', '1175-EP2277875A2', '1175-EP2277877A1', '1175-EP2277878A1', '1175-EP2277880A1', '1175-EP2277881A1', '1175-EP2279750A1', '1175-EP2280000A1', '1175-EP2280001A1', '1175-EP2280002A1', '1175-EP2280003A2', '1175-EP2280004A1', '1175-EP2280005A1', '1175-EP2280007A1', '1175-EP2280008A2', '1175-EP2280009A1', '1175-EP2280011A1', '1175-EP2280012A2', '1175-EP2280020A1', '1175-EP2280021A1', '1175-EP2280948A1', '1175-EP2280957A1', '1175-EP2281563A1', '1175-EP2281810A1', '1175-EP2281815A1', '1175-EP2281817A1', '1175-EP2281818A1', '1175-EP2281819A1', '1175-EP2281820A2', '1175-EP2281821A1', '1175-EP2281822A1', '1175-EP2281823A2', '1175-EP2281824A1', '1175-EP2284149A1', '1175-EP2284150A2', '1175-EP2284151A2', '1175-EP2284152A2', '1175-EP2284153A2', '1175-EP2284155A2', '1175-EP2284156A2', '1175-EP2284157A1', '1175-EP2284159A1', '1175-EP2284160A1', '1175-EP2284164A2', '1175-EP2284169A1', '1175-EP2284171A1', '1175-EP2284174A1', '1175-EP2284920A1', '1175-EP2286811A1', '1175-EP2286812A1', '1175-EP2287140A2', '1175-EP2287147A2', '1175-EP2287148A2', '1175-EP2287150A2', '1175-EP2287152A2', '1175-EP2287153A1', '1175-EP2287155A1', '1175-EP2287157A1', '1175-EP2287160A1', '1175-EP2287161A1', '1175-EP2287162A1', '1175-EP2287165A2', '1175-EP2287166A2', '1175-EP2287167A1', '1175-EP2289509A2', '1175-EP2289868A1', '1175-EP2289871A1', '1175-EP2289877A1', '1175-EP2289880A1', '1175-EP2289884A1', '1175-EP2289885A1', '1175-EP2289887A2', '1175-EP2289888A2', '1175-EP2289891A2', '1175-EP2289893A1', '1175-EP2289894A2', '1175-EP2289897A1', '1175-EP2289965A1', '1175-EP2292228A1', '1175-EP2292586A2', '1175-EP2292590A2', '1175-EP2292592A1', '1175-EP2292593A2', '1175-EP2292595A1', '1175-EP2292596A2', '1175-EP2292597A1', '1175-EP2292604A2', '1175-EP2292606A1', '1175-EP2292610A1', '1175-EP2292611A1', '1175-EP2292613A1', '1175-EP2292615A1', '1175-EP2292617A1', '1175-EP2292618A1', '1175-EP2292619A1', '1175-EP2292620A2', '1175-EP2292629A1', '1175-EP2292630A1', '1175-EP2295053A1', '1175-EP2295402A2', '1175-EP2295406A1', '1175-EP2295408A1', '1175-EP2295409A1', '1175-EP2295410A1', '1175-EP2295411A1', '1175-EP2295412A1', '1175-EP2295413A1', '1175-EP2295414A1', '1175-EP2295415A1', '1175-EP2295416A2', '1175-EP2295417A1', '1175-EP2295418A1', '1175-EP2295419A2', '1175-EP2295425A1', '1175-EP2295426A1', '1175-EP2295427A1', '1175-EP2295428A2', '1175-EP2295429A1', '1175-EP2295432A1', '1175-EP2295433A2', '1175-EP2295434A2', '1175-EP2295437A1', '1175-EP2295439A1', '1175-EP2295441A2', '1175-EP2295503A1', '1175-EP2298312A1', '1175-EP2298729A1', '1175-EP2298731A1', '1175-EP2298732A1', '1175-EP2298734A2', '1175-EP2298735A1', '1175-EP2298739A1', '1175-EP2298744A2', '1175-EP2298746A1', '1175-EP2298747A1', '1175-EP2298748A2', '1175-EP2298750A1', '1175-EP2298754A1', '1175-EP2298755A1', '1175-EP2298756A1', '1175-EP2298757A2', '1175-EP2298758A1', '1175-EP2298759A1', '1175-EP2298761A1', '1175-EP2298763A1', '1175-EP2298764A1', '1175-EP2298765A1', '1175-EP2298766A1', '1175-EP2298767A1', '1175-EP2298768A1', '1175-EP2298770A1', '1175-EP2298772A1', '1175-EP2298774A1', '1175-EP2298775A1', '1175-EP2298776A1', '1175-EP2298778A1', '1175-EP2298779A1', '1175-EP2298780A1', '1175-EP2298783A1', '1175-EP2298828A1', '1175-EP2299509A1', '1175-EP2299510A1', '1175-EP2299785A1', '1175-EP2299817A1', '1175-EP2299819A1', '1175-EP2301534A1', '1175-EP2301536A1', '1175-EP2301538A1', '1175-EP2301911A1', '1175-EP2301912A2', '1175-EP2301913A1', '1175-EP2301914A1', '1175-EP2301916A2', '1175-EP2301918A1', '1175-EP2301921A1', '1175-EP2301922A1', '1175-EP2301923A1', '1175-EP2301926A1', '1175-EP2301928A1', '1175-EP2301929A1', '1175-EP2301930A1', '1175-EP2301932A1', '1175-EP2301933A1', '1175-EP2301934A1', '1175-EP2301935A1', '1175-EP2301936A1', '1175-EP2301937A1', '1175-EP2301939A1', '1175-EP2301940A1', '1175-EP2301983A1', '1175-EP2302003A1', '1175-EP2303843A2', '1175-EP2303861A1', '1175-EP2305219A1', '1175-EP2305250A1', '1175-EP2305627A1', '1175-EP2305629A1', '1175-EP2305633A1', '1175-EP2305637A2', '1175-EP2305640A2', '1175-EP2305641A1', '1175-EP2305643A1', '1175-EP2305644A1', '1175-EP2305647A1', '1175-EP2305648A1', '1175-EP2305649A1', '1175-EP2305652A2', '1175-EP2305654A1', '1175-EP2305657A2', '1175-EP2305658A1', '1175-EP2305659A1', '1175-EP2305660A1', '1175-EP2305663A1', '1175-EP2305664A1', '1175-EP2305667A2', '1175-EP2305668A1', '1175-EP2305672A1', '1175-EP2305674A1', '1175-EP2305677A1', '1175-EP2305679A1', '1175-EP2305682A1', '1175-EP2305684A1', '1175-EP2305687A1', '1175-EP2305688A1', '1175-EP2305689A1', '1175-EP2305695A2', '1175-EP2305696A2', '1175-EP2305697A2', '1175-EP2305698A2', '1175-EP2305808A1', '1175-EP2305825A1', '1175-EP2306788A1', '1175-EP2306789A1', '1175-EP2308510A1', '1175-EP2308562A2', '1175-EP2308812A2', '1175-EP2308828A2', '1175-EP2308832A1', '1175-EP2308833A2', '1175-EP2308838A1', '1175-EP2308839A1', '1175-EP2308840A1', '1175-EP2308841A2', '1175-EP2308847A1', '1175-EP2308848A1', '1175-EP2308849A1', '1175-EP2308850A1', '1175-EP2308851A1', '1175-EP2308857A1', '1175-EP2308858A1', '1175-EP2308861A1', '1175-EP2308862A1', '1175-EP2308863A1', '1175-EP2308866A1', '1175-EP2308867A2', '1175-EP2308868A1', '1175-EP2308870A2', '1175-EP2308871A1', '1175-EP2308872A1', '1175-EP2308873A1', '1175-EP2308874A1', '1175-EP2308877A1', '1175-EP2308879A1', '1175-EP2308880A1', '1175-EP2308926A1', '1175-EP2308960A1', '1175-EP2309564A1', '1175-EP2309584A1', '1175-EP2311451A1', '1175-EP2311455A1', '1175-EP2311464A1', '1175-EP2311796A1', '1175-EP2311797A1', '1175-EP2311798A1', '1175-EP2311799A1', '1175-EP2311801A1', '1175-EP2311802A1', '1175-EP2311803A1', '1175-EP2311806A2', '1175-EP2311807A1', '1175-EP2311808A1', '1175-EP2311809A1', '1175-EP2311810A1', '1175-EP2311811A1', '1175-EP2311814A1', '1175-EP2311815A1', '1175-EP2311816A1', '1175-EP2311817A1', '1175-EP2311818A1', '1175-EP2311821A1', '1175-EP2311822A1', '1175-EP2311823A1', '1175-EP2311824A1', '1175-EP2311825A1', '1175-EP2311827A1', '1175-EP2311829A1', '1175-EP2311830A1', '1175-EP2311831A1', '1175-EP2311836A1', '1175-EP2311837A1', '1175-EP2311840A1', '1175-EP2311842A2', '1175-EP2311850A1', '1175-EP2314295A1', '1175-EP2314558A1', '1175-EP2314574A1', '1175-EP2314575A1', '1175-EP2314576A1', '1175-EP2314582A1', '1175-EP2314583A1', '1175-EP2314584A1', '1175-EP2314585A1', '1175-EP2314586A1', '1175-EP2314587A1', '1175-EP2314588A1', '1175-EP2314590A1', '1175-EP2314593A1', '1175-EP2315303A1', '1175-EP2315502A1', '1175-EP2316450A1', '1175-EP2316452A1', '1175-EP2316457A1', '1175-EP2316459A1', '1175-EP2316470A2', '1175-EP2316824A1', '1175-EP2316825A1', '1175-EP2316826A1', '1175-EP2316827A1', '1175-EP2316829A1', '1175-EP2316831A1', '1175-EP2316832A1', '1175-EP2316833A1', '1175-EP2316834A1', '1175-EP2316835A1', '1175-EP2316836A1', '1175-EP2316905A1', '1175-EP2316906A2', '1175-EP2316974A1', '1175-EP2371811A2', '1175-EP2371812A1', '1175-EP2371814A1', '1175-EP2371831A1', '1175-EP2372804A1', '1175-EP2374454A1', '1175-EP2374783A1', '1175-EP2374788A1', '1175-EP2374790A1', '1175-EP2374792A1', '1175-EP2377510A1', '1175-EP2377813A1', '1175-EP2377841A1', '1175-EP2378585A1', '1175-EP2380568A1', '1175-EP2380867A1', '1175-EP2380869A1', '1175-EP2380870A1', '1175-EP2380874A2', 'C00747', '14835-EP2272517A1', '14835-EP2272846A1', '14835-EP2277868A1', '14835-EP2277869A1', '14835-EP2277870A1', '14835-EP2280002A1', '14835-EP2280011A1', '14835-EP2280948A1', '14835-EP2284166A1', '14835-EP2287158A1', '14835-EP2292592A1', '14835-EP2292608A1', '14835-EP2292625A1', '14835-EP2295422A2', '14835-EP2295436A1', '14835-EP2298305A1', '14835-EP2298749A1', '14835-EP2298750A1', '14835-EP2298769A1', '14835-EP2298773A1', '14835-EP2305657A2', '14835-EP2308852A1', '14835-EP2308866A1', '14835-EP2308878A2', '14835-EP2311806A2', '14835-EP2316457A1', '14835-EP2316830A2', '14835-EP2371806A1', '14835-EP2371807A1', 'A802257', 'Q210385', 'J-002482', 'F0001-0227', 'Pyridine, puriss. p.a., ACS reagent, >=99.8% (GC)', 'Pyridine, suitable for hydroxyl value determination, >=99.5%', 'Pyridine, Pharmaceutical Secondary Standard; Certified Reference Material', 'Pyridine, puriss. p.a., ACS reagent, reag. Ph. Eur., >=99.5% (GC)', 'Pyridine, puriss., absolute, over molecular sieve (H2O <=0.005%), >=99.8% (GC)', 'Pyridine, puriss., Reag. Ph. Eur., dried, >=99.5% (GC), <=0.0075% water']"