Number;IUPAC_name;Charge;Molecular Formula;Molecular Weight [g/mol];Isomeric SMILES;Pubchem CID;GasPhaseAcidity_B2PLYP//DLPNO-CCSD(T) [kcal/mol];GSolv_Ion_Water [kcal/mol];GSolv_Ion_DMSO [kcal/mol];GSolv_Ion_Acetonitrile [kcal/mol];GSolv_Ion_MeOH [kcal/mol];Gsolv_Neutral_Water_exp [kcal/mol];Gsolv_Neutral_DMSO_TZVPD-Fine [kcal/mol];Gsolv_Neutral_Acetonitrile_TZVPD-Fine [kcal/mol];Gsolv_Neutral_MeOH_TZVPD-Fine [kcal/mol];pka_water;pka_DMSO;pka_Acetonitrile;pka_MeOH;Synonyms
76;propan-2-one;-1;C3H6O;58.08;CC(=O)C;180;365.4;-82.3;-72.5;;;-3.9;-4.3;-4.8;-4.6;19;26.5;;;"['acetone', '2-propanone', 'propanone', '67-64-1', 'propan-2-one', 'Dimethyl ketone', 'Methyl ketone', 'Dimethylformaldehyde', 'Pyroacetic ether', 'beta-Ketopropane', 'Dimethylketal', 'Chevron acetone', 'Ketone propane', 'Aceton', 'Pyroacetic acid', 'Ketone, dimethyl', 'dimethylketone', 'RCRA waste number U002', 'Dimethyl formaldehyde', 'Aceton [German, Dutch, Polish]', 'Ketone, dimethyl-', '.beta.-Ketopropane', 'Acetone [NF]', 'NSC 135802', 'UNII-1364PS73AF', 'MFCD00008765', 'd-acetone', '(CH3)2CO', 'CHEBI:15347', '1364PS73AF', 'Acetone (NF)', 'NCGC00091179-01', 'DSSTox_CID_1482', 'DSSTox_RID_76176', 'Acetone (natural)', 'DSSTox_GSID_21482', 'Caswell No. 004', 'Acetone, for HPLC, >=99.8%', 'Acetone, for HPLC, >=99.9%', 'Acetone, ACS reagent, >=99.5%', 'CAS-67-64-1', 'HSDB 41', 'FEMA No. 3326', 'CCRIS 5953', 'ACETONE (1,1,1,3,3,3-D6)', 'EINECS 200-662-2', 'UN1090', 'RCRA waste no. U002', 'EPA Pesticide Chemical Code 004101', 'dimethylcetone', 'isopropanal', 'methylketone', 'Dimethylketon', 'Propanon', 'Sasetone', 'methyl-ketone', '2propanone', 'b-Ketopropane', 'AI3-01238', '2-propanal', 'Acetone HP', 'Acetone ACS', 'Acetone, puriss.', 'Acetone p.A.', 'Acetone (TN)', 'Acetone HPLC grade', 'methyl methyl ketone', 'Acetone, for HPLC', 'Acetone, ACS reagent', 'Acetone, HPLC Grade', 'Acetone, technical grade', 'Acetone oil (Salt/Mix)', 'CH3COCH3', 'ACMC-1AI6Y', 'Acetone Reagent Grade ACS', 'Acetone, histological grade', 'EC 200-662-2', 'Acetone, analytical standard', 'Acetone, Environmental Grade', 'Acetone, Semiconductor Grade', 'Acetone, LR, >=99%', 'Acetone, natural, >=97%', 'UN 1091 (Salt/Mix)', 'Aceton (GERMAN, POLISH)', 'Acetone, puriss., 99.0%', 'CHEMBL14253', 'Dimethylketone, Pyroacetic acid', 'WLN: 1V1', 'Acetone, AR, >=99.5%', 'DTXSID8021482', 'Acetone, Spectrophotometric Grade', 'Citronellidene Acetone; Baccartol', 'ZINC895111', 'Acetone, GC, for residue analysis', 'Acetone, >=99.5%, ACS reagent', 'Tox21_111096', 'Tox21_202480', 'c0556', 'LMFA12000057', 'NSC135802', 'Acetone 5000 microg/mL in Methanol', 'Acetone, purum, >=99.0% (GC)', 'AKOS000120890', 'Acetone 100 microg/mL in Acetonitrile', 'NSC-135802', 'UN 1090', 'Acetone, SAJ first grade, >=99.0%', 'Acetone [UN1090]  [Flammable liquid]', 'Acetone, for chromatography, >=99.8%', 'Acetone, histological grade, >=99.5%', 'Acetone, JIS special grade, >=99.5%', 'Acetone, Laboratory Reagent, >=99.5%', 'NCGC00260029-01', 'Acetone, for HPLC, >=99.8% (GC)', 'Acetone, UV HPLC spectroscopic, 99.8%', 'Acetone, >=99.5%, for residue analysis', 'Acetone, for residue analysis, >=99.5%', 'A0054', 'Acetone, for luminescence, >=99.5% (GC)', 'FT-0621803', 'Acetone, suitable for determination of dioxins', '2941-EP1441224A2', '2941-EP2269975A2', '2941-EP2269977A2', '2941-EP2269986A1', '2941-EP2269988A2', '2941-EP2269989A1', '2941-EP2269990A1', '2941-EP2269992A1', '2941-EP2269993A1', '2941-EP2269994A1', '2941-EP2269995A1', '2941-EP2269997A2', '2941-EP2269999A1', '2941-EP2270000A1', '2941-EP2270004A1', '2941-EP2270006A1', '2941-EP2270009A1', '2941-EP2270010A1', '2941-EP2270011A1', '2941-EP2270012A1', '2941-EP2270013A1', '2941-EP2270014A1', '2941-EP2270015A1', '2941-EP2270016A1', '2941-EP2270113A1', '2941-EP2270114A1', '2941-EP2272517A1', '2941-EP2272537A2', '2941-EP2272813A2', '2941-EP2272817A1', '2941-EP2272822A1', '2941-EP2272825A2', '2941-EP2272827A1', '2941-EP2272830A1', '2941-EP2272832A1', '2941-EP2272835A1', '2941-EP2272837A1', '2941-EP2272839A1', '2941-EP2272840A1', '2941-EP2272843A1', '2941-EP2272844A1', '2941-EP2272845A2', '2941-EP2272848A1', '2941-EP2272849A1', '2941-EP2272935A1', '2941-EP2272972A1', '2941-EP2272973A1', '2941-EP2274983A1', '2941-EP2275102A1', '2941-EP2275105A1', '2941-EP2275395A2', '2941-EP2275401A1', '2941-EP2275404A1', '2941-EP2275407A1', '2941-EP2275410A1', '2941-EP2275411A2', '2941-EP2275412A1', '2941-EP2275413A1', '2941-EP2275414A1', '2941-EP2275415A2', '2941-EP2275416A1', '2941-EP2275419A2', '2941-EP2275423A1', '2941-EP2275424A1', '2941-EP2275425A1', '2941-EP2275427A1', '2941-EP2275469A1', '2941-EP2277565A2', '2941-EP2277566A2', '2941-EP2277567A1', '2941-EP2277568A2', '2941-EP2277569A2', '2941-EP2277570A2', '2941-EP2277848A1', '2941-EP2277861A1', '2941-EP2277862A2', '2941-EP2277865A1', '2941-EP2277866A1', '2941-EP2277867A2', '2941-EP2277872A1', '2941-EP2277874A1', '2941-EP2277875A2', '2941-EP2277878A1', '2941-EP2277879A1', '2941-EP2277880A1', '2941-EP2277881A1', '2941-EP2277898A2', '2941-EP2279750A1', '2941-EP2280000A1', '2941-EP2280001A1', '2941-EP2280003A2', '2941-EP2280008A2', '2941-EP2280009A1', '2941-EP2280010A2', '2941-EP2280012A2', '2941-EP2281563A1', '2941-EP2281810A1', '2941-EP2281812A1', '2941-EP2281813A1', '2941-EP2281815A1', '2941-EP2281817A1', '2941-EP2281818A1', '2941-EP2281820A2', '2941-EP2281821A1', '2941-EP2281823A2', '2941-EP2281899A2', '2941-EP2284148A1', '2941-EP2284149A1', '2941-EP2284157A1', '2941-EP2284158A1', '2941-EP2284160A1', '2941-EP2284165A1', '2941-EP2284167A2', '2941-EP2284168A2', '2941-EP2284169A1', '2941-EP2284174A1', '2941-EP2286811A1', '2941-EP2286915A2', '2941-EP2287147A2', '2941-EP2287152A2', '2941-EP2287153A1', '2941-EP2287154A1', '2941-EP2287156A1', '2941-EP2287157A1', '2941-EP2287159A1', '2941-EP2287161A1', '2941-EP2287162A1', '2941-EP2287167A1', '2941-EP2287940A1', '2941-EP2289868A1', '2941-EP2289876A1', '2941-EP2289878A1', '2941-EP2289879A1', '2941-EP2289885A1', '2941-EP2289890A1', '2941-EP2289893A1', '2941-EP2289894A2', '2941-EP2289897A1', '2941-EP2289965A1', '2941-EP2292233A2', '2941-EP2292280A1', '2941-EP2292576A2', '2941-EP2292589A1', '2941-EP2292590A2', '2941-EP2292592A1', '2941-EP2292595A1', '2941-EP2292596A2', '2941-EP2292597A1', '2941-EP2292604A2', '2941-EP2292606A1', '2941-EP2292607A2', '2941-EP2292609A1', '2941-EP2292610A1', '2941-EP2292612A2', '2941-EP2292615A1', '2941-EP2292619A1', '2941-EP2292621A1', '2941-EP2292622A1', '2941-EP2295055A2', '2941-EP2295401A2', '2941-EP2295402A2', '2941-EP2295406A1', '2941-EP2295407A1', '2941-EP2295411A1', '2941-EP2295414A1', '2941-EP2295415A1', '2941-EP2295416A2', '2941-EP2295418A1', '2941-EP2295423A1', '2941-EP2295425A1', '2941-EP2295426A1', '2941-EP2295427A1', '2941-EP2295429A1', '2941-EP2295430A2', '2941-EP2295431A2', '2941-EP2295432A1', '2941-EP2295435A1', '2941-EP2295437A1', '2941-EP2295438A1', '2941-EP2295439A1', '2941-EP2295441A2', '2941-EP2295503A1', '2941-EP2298312A1', '2941-EP2298729A1', '2941-EP2298735A1', '2941-EP2298736A1', '2941-EP2298738A1', '2941-EP2298742A1', '2941-EP2298743A1', '2941-EP2298744A2', '2941-EP2298745A1', '2941-EP2298746A1', '2941-EP2298747A1', '2941-EP2298748A2', '2941-EP2298750A1', '2941-EP2298753A1', '2941-EP2298754A1', '2941-EP2298755A1', '2941-EP2298758A1', '2941-EP2298759A1', '2941-EP2298761A1', '2941-EP2298763A1', '2941-EP2298764A1', '2941-EP2298765A1', '2941-EP2298767A1', '2941-EP2298768A1', '2941-EP2298770A1', '2941-EP2298772A1', '2941-EP2298775A1', '2941-EP2298776A1', '2941-EP2298777A2', '2941-EP2298778A1', '2941-EP2298783A1', '2941-EP2298828A1', '2941-EP2301534A1', '2941-EP2301536A1', '2941-EP2301538A1', '2941-EP2301627A1', '2941-EP2301911A1', '2941-EP2301918A1', '2941-EP2301922A1', '2941-EP2301923A1', '2941-EP2301924A1', '2941-EP2301925A1', '2941-EP2301928A1', '2941-EP2301930A1', '2941-EP2301931A1', '2941-EP2301932A1', '2941-EP2301937A1', '2941-EP2301938A1', '2941-EP2301939A1', '2941-EP2301940A1', '2941-EP2301941A1', '2941-EP2301983A1', '2941-EP2302003A1', '2941-EP2305219A1', '2941-EP2305248A1', '2941-EP2305250A1', '2941-EP2305254A1', '2941-EP2305257A1', '2941-EP2305627A1', '2941-EP2305629A1', '2941-EP2305636A1', '2941-EP2305640A2', '2941-EP2305642A2', '2941-EP2305648A1', '2941-EP2305649A1', '2941-EP2305650A1', '2941-EP2305651A1', '2941-EP2305655A2', '2941-EP2305658A1', '2941-EP2305660A1', '2941-EP2305663A1', '2941-EP2305664A1', '2941-EP2305665A1', '2941-EP2305667A2', '2941-EP2305671A1', '2941-EP2305672A1', '2941-EP2305675A1', '2941-EP2305676A1', '2941-EP2305677A1', '2941-EP2305680A2', '2941-EP2305681A1', '2941-EP2305682A1', '2941-EP2305684A1', '2941-EP2305685A1', '2941-EP2305686A1', '2941-EP2305688A1', '2941-EP2305689A1', '2941-EP2305695A2', '2941-EP2305696A2', '2941-EP2305697A2', '2941-EP2305698A2', '2941-EP2305769A2', '2941-EP2305825A1', '2941-EP2308471A1', '2941-EP2308492A1', '2941-EP2308510A1', '2941-EP2308562A2', '2941-EP2308812A2', '2941-EP2308828A2', '2941-EP2308838A1', '2941-EP2308839A1', '2941-EP2308840A1', '2941-EP2308841A2', '2941-EP2308842A1', '2941-EP2308848A1', '2941-EP2308849A1', '2941-EP2308850A1', '2941-EP2308851A1', '2941-EP2308853A1', '2941-EP2308854A1', '2941-EP2308857A1', '2941-EP2308858A1', '2941-EP2308861A1', '2941-EP2308862A1', '2941-EP2308864A1', '2941-EP2308867A2', '2941-EP2308870A2', '2941-EP2308872A1', '2941-EP2308874A1', '2941-EP2308875A1', '2941-EP2308876A1', '2941-EP2308879A1', '2941-EP2308882A1', '2941-EP2308926A1', '2941-EP2308960A1', '2941-EP2309564A1', '2941-EP2309584A1', '2941-EP2311451A1', '2941-EP2311453A1', '2941-EP2311455A1', '2941-EP2311801A1', '2941-EP2311802A1', '2941-EP2311803A1', '2941-EP2311805A1', '2941-EP2311806A2', '2941-EP2311808A1', '2941-EP2311809A1', '2941-EP2311810A1', '2941-EP2311811A1', '2941-EP2311812A1', '2941-EP2311813A1', '2941-EP2311814A1', '2941-EP2311815A1', '2941-EP2311816A1', '2941-EP2311817A1', '2941-EP2311820A1', '2941-EP2311821A1', '2941-EP2311822A1', '2941-EP2311823A1', '2941-EP2311824A1', '2941-EP2311825A1', '2941-EP2311826A2', '2941-EP2311828A1', '2941-EP2311829A1', '2941-EP2311830A1', '2941-EP2311832A1', '2941-EP2311833A1', '2941-EP2311837A1', '2941-EP2311838A1', '2941-EP2311841A1', '2941-EP2311842A2', '2941-EP2314298A1', '2941-EP2314558A1', '2941-EP2314571A2', '2941-EP2314576A1', '2941-EP2314577A1', '2941-EP2314581A1', '2941-EP2314583A1', '2941-EP2314584A1', '2941-EP2314585A1', '2941-EP2314587A1', '2941-EP2314590A1', '2941-EP2314591A1', '2941-EP2314593A1', '2941-EP2315303A1', '2941-EP2315502A1', '2941-EP2316450A1', '2941-EP2316452A1', '2941-EP2316824A1', '2941-EP2316826A1', '2941-EP2316829A1', '2941-EP2316831A1', '2941-EP2316832A1', '2941-EP2316833A1', '2941-EP2316836A1', '2941-EP2316905A1', '2941-EP2316906A2', '2941-EP2370388A1', '2941-EP2370389A1', '2941-EP2371803A1', '2941-EP2371805A1', '2941-EP2371808A1', '2941-EP2371811A2', '2941-EP2371814A1', '2941-EP2371831A1', '2941-EP2372017A1', '2941-EP2373607A1', '2941-EP2374454A1', '2941-EP2374533A1', '2941-EP2374538A1', '2941-EP2374790A1', '2941-EP2374895A1', '2941-EP2377842A1', '2941-EP2377843A1', '2941-EP2377845A1', '2941-EP2377847A1', '2941-EP2380568A1', '2941-EP2380873A1', '2941-EP2380874A2', '2973-EP2272827A1', '2973-EP2272846A1', '2973-EP2275422A1', '2973-EP2277868A1', '2973-EP2277869A1', '2973-EP2277870A1', '2973-EP2280000A1', '2973-EP2284166A1', '2973-EP2287164A1', '2973-EP2289483A1', '2973-EP2289881A1', '2973-EP2292608A1', '2973-EP2292616A1', '2973-EP2295436A1', '2973-EP2298076A1', '2973-EP2298077A1', '2973-EP2298749A1', '2973-EP2298769A1', '2973-EP2301353A1', '2973-EP2305031A1', '2973-EP2305033A1', '2973-EP2305034A1', '2973-EP2305035A1', '2973-EP2305665A1', '2973-EP2305682A1', '2973-EP2308492A1', '2973-EP2308866A1', '2973-EP2308878A2', '2973-EP2314580A1', '2973-EP2371805A1', '2973-EP2374791A1', '6121-EP0930075A1', 'Acetone, glass distilled HRGC/HPLC trace grade', 'C00207', 'D02311', 'Q49546', '79278-EP2305695A2', '79278-EP2305696A2', '79278-EP2305697A2', '79278-EP2305698A2', '81217-EP2298761A1', '81217-EP2301544A1', '81217-EP2305254A1', '81217-EP2305687A1', '88746-EP2275105A1', '88746-EP2305825A1', 'Acetone, ACS spectrophotometric grade, >=99.5%', 'Acetone, ReagentPlus(R), phenol free, >=99.5%', 'Acetone, >=99%, meets FCC analytical specifications', 'Acetone, ACS reagent, >=99.5%, <=2 ppm low benzene', 'Acetone, contains 20.0 % (v/v) acetonitrile, for HPLC', 'Acetone, for residue analysis, suitable for 5000 per JIS', 'UNII-N4G9GAT76C component CSCPPACGZOOCGX-UHFFFAOYSA-N', 'Acetone, for UV-spectroscopy, ACS reagent, >=99.7% (GC)', 'Acetone, United States Pharmacopeia (USP) Reference Standard', 'Acetone solution, contains 20.0 % (v/v) acetonitrile, for HPLC', 'Acetone, HPLC Plus, for HPLC, GC, and residue analysis, >=99.9%', 'Acetone, semiconductor grade MOS PURANAL(TM) (Honeywell 17921)', 'Acetone, semiconductor grade ULSI PURANAL(TM) (Honeywell 17014)', 'Acetone, semiconductor grade VLSI PURANAL(TM) (Honeywell 17617)', 'Acetone, Pharmaceutical Secondary Standard; Certified Reference Material', 'Acetone solution, certified reference material, 2000 mug/mL in methanol: water (9:1)', 'Acetone, puriss. p.a., ACS reagent, reag. ISO, reag. Ph. Eur., >=99.5% (GC)', 'Acetone, puriss., meets analytical specification of Ph. Eur., BP, NF, >=99% (GC)']"
77;pentan-3-one;-1;C5H10O;86.13;CCC(=O)CC;7288;362.9;-78.1;-69.3;;;-3.3;-4.4;-5.2;-5.1;19.9;27.1;;;['3-PENTANONE', 'Pentan-3-one', 'Diethyl ketone', '96-22-0', 'Propione', 'Ethyl ketone', 'Dimethylacetone', 'Metacetone', 'Methacetone', 'Diethylcetone', 'DIETHYLKETONE', 'Pentanone-3', 'Ethyl propionyl', 'UNII-9SLZ98M9NK', 'NSC 8653', '9SLZ98M9NK', 'DEK', 'CHEBI:87755', 'Diethylcetone [French]', 'HSDB 5301', 'EINECS 202-490-3', 'UN1156', 'diethylketon', 'di-ethyl ketone', 'AI3-24337', '3-pentanon', '3-penta none', 'ethyl ethyl ketone', '1-pentan-3-one', '1,3-Dimethylacetone', '3-Oxylatopentane-3-ylium', 'DSSTox_CID_1820', 'ACMC-209s6p', '3-Pentanone, >=99%', 'EC 202-490-3', 'DSSTox_RID_76347', 'DSSTox_GSID_21820', 'CHEMBL45315', 'WLN: 2V2', 'DTXSID6021820', '(C2H5)2CO', '3-Pentanone, analytical standard', '3-Pentanone, for HPLC, 96%', 'NSC8653', 'AMY11060', 'NSC-8653', 'ZINC1648158', 'Tox21_200677', '7317AF', 'BBL027755', 'LMFA12000001', 'MFCD00009320', 'STL281851', 'AKOS000119714', 'MCULE-8236549739', 'UN 1156', 'CAS-96-22-0', '3-Pentanone, ReagentPlus(R), >=99%', 'NCGC00166068-01', 'NCGC00166068-02', 'NCGC00258231-01', '3-Pentanone 100 microg/mL in Acetonitrile', 'FT-0616299', 'P0061', 'Diethyl ketone [UN1156]  [Flammable liquid]', '26071-EP2314558A1', '3-Pentanone, ReagentPlus(R), >=99.0% (GC)', '92820-EP2269986A1', '92820-EP2272825A2', '92820-EP2295414A1', '92820-EP2305649A1', '103051-EP2269986A1', '103051-EP2287154A1', '103051-EP2289879A1', '103051-EP2298753A1', '103051-EP2301918A1', 'A845564', 'Q223112', 'F0001-2290', 'Z234895377', 'UNII-Y4Y2BRI5UL component FDPIMTJIUBPUKL-UHFFFAOYSA-N']