Number;IUPAC_name;Charge;Molecular Formula;Molecular Weight [g/mol];Isomeric SMILES;Pubchem CID;GasPhaseAcidity_B2PLYP//DLPNO-CCSD(T) [kcal/mol];GSolv_Ion_Water [kcal/mol];GSolv_Ion_DMSO [kcal/mol];GSolv_Ion_Acetonitrile [kcal/mol];GSolv_Ion_MeOH [kcal/mol];Gsolv_Neutral_Water_exp [kcal/mol];Gsolv_Neutral_DMSO_TZVPD-Fine [kcal/mol];Gsolv_Neutral_Acetonitrile_TZVPD-Fine [kcal/mol];Gsolv_Neutral_MeOH_TZVPD-Fine [kcal/mol];pka_water;pka_DMSO;pka_Acetonitrile;pka_MeOH;Synonyms
59;propan-2-ol;-1;C3H8O;60.1;CC(C)O;3776;371.7;-92.1;-75.1;;;-4.8;-5.8;-5.0;-6.2;17.1;30.3;;;"['isopropanol', 'Isopropyl alcohol', '2-Propanol', 'Propan-2-ol', '67-63-0', '2-Hydroxypropane', 'sec-Propyl alcohol', 'Alkolave', 'Avantine', 'Hartosol', 'Dimethylcarbinol', 'i-Propanol', 'Petrohol', 'Takineocol', 'Alcojel', 'Avantin', '1-Methylethanol', '2-Propyl alcohol', 'Alcolo', 'Isohol', 'Lavacol', 'Lutosol', 'Propol', 'Alcosolve 2', '1-Methylethyl alcohol', 'Imsol A', 'Arquad DMCB', 'Alcosolve', 'Spectrar', 'i-Propylalkohol', 'n-Propan-2-ol', 'Combi-schutz', 'i-Propyl alcohol', 'Isopropyl alcohol, rubbing', 'ISO-PROPANOL', 'Iso-propylalkohol', 'Alcool isopropilico', 'Visco 1152', 'Alcool isopropylique', 'Sterisol hand disinfectant', 'i-Propanol [German]', 'sec-Propanol', 'iPrOH', 'i-Propylalkohol [German]', 'Iso-propyl alcohol', 'Iso-propylalkohol [German]', 'Alcool isopropilico [Italian]', 'Alcool isopropylique [French]', 'FEMA No. 2929', 'isopropylalcohol', 'iso-propylalcohol', 'propanol-2', 'UNII-ND2M416302', 'Isopropyl alcohol [USP]', 'MFCD00011674', 'CHEBI:17824', 'ND2M416302', 'NSC-135801', '2-Propanol, anhydrous', 'NCGC00090917-01', 'Rubbing alcohol', 'DSSTox_CID_762', 'Isopropyl alcohol (USP)', 'DSSTox_RID_75777', 'DSSTox_GSID_20762', '2-Propanol, USP, 99.0%', 'Caswell No. 507', 'ISOPROPYL ALCOHOL(2-D)', 'FEMA Number 2929', '2-Propanol, ACS reagent, >=99.5%', 'CAS-67-63-0', 'CCRIS 2308', 'HSDB 116', '555-31-7', 'EINECS 200-661-7', 'UN1219', 'ISOPROPYL ALCOHOL(1,1,1,3,3,3-D6)', 'NSC 135801', 'BRN 0635639', 'ISOPROPYL ALCOHOL(1,1,1,2,3,3,3-D7)', 'isoproylalcohol', 'Virahol', 'i-propylalcohol', 'Lavaco', 'Isopropylalkohol', '2propanol', '2-propylalcohol', 'isopropy alcohol', 'isoproyl alcohol', 'AI3-01636', 'Isopropyl-alcohol', 'propane-2ol', 'propan-2ol', '2-propano', 'Isopropryl alcohol', 'propane-2-ol', '2 -propanol', '2- propanol', 'propan 2-ol', 'iso-PrOH', 'Isopropyl  Alcohol', 'i-PrOH', '(propan-2-ol)', 'Isopro (TN)', 'Recovered Isopropanol', 'Tissue Dry Dehydrant', 'Isopropyl Alcohol C+', 'Hibistat (Salt/Mix)', 'i-Pr-OH', 'Propane, 2-hydroxy-', '2-Propanol, Ph Eur', 'iso-C3H7OH', 'Isopropanol (JP17)', 'Isopropanol (Recovered)', 'Isopropanol ACS reagent', '2-Propanol, GC Grade', '2-Propanol, for HPLC', 'Isopropyl Alcohol - GMP', '2-Propanol, ACS reagent', '2-Propanol, HPLC Grade', 'ACMC-1BI1R', 'CHEMBL582', 'Isopropyl alcohol HPLC/UV', '2-Propanol, 99.5%', 'EC 200-661-7', 'IPS 1', 'Isopropanol, 70% in water', 'Isopropanol, 70% in H2O', '4-01-00-01461 (Beilstein Handbook Reference)', 'Isopropyl alcohol (manufacture strong-acid process)', 'Isopropanol, Isopropyl Alcohol', 'Isopropanol, 99.5% anhydrous', 'WLN: QY1&1', '2-Propanol, analytical standard', 'Isopropanol or isopropyl alcohol', '2-Propanol, LR, >=99%', 'DTXSID7020762', 'BDBM36154', 'Isopropyl alcohol (manufacturing-strong acid process only)', '2-Propanol, anhydrous, 99.5%', 'ZINC901159', '2-Propanol, AR, >=99.5%', 'AMY11029', 'STR00089', '2-Propanol, 99.9%, PRA grade', '2-Propanol, for HPLC, 99.5%', '2-Propanol, for HPLC, 99.9%', '2-Propanol, technical grade, 95%', 'Isopropyl Alcohol Reagent Grade ACS', 'Tox21_111039', 'Tox21_202475', '2-Propanol, 99.5%, HPLC grade', '2-Propanol, Spectrophotometric Grade', 'NSC135801', '2-Propanol, histological grade, 99%', 'AKOS000121012', '2-Propanol, for HPLC, >=99.8%', 'DB02325', 'MCULE-6646752234', 'UN 1219', 'NCGC00260024-01', '2-Propanol, 99.95% (LC-MS Grade)', '2-Propanol, UV HPLC gradient, 99.8%', 'Isopropyl alcohol (only persons who manufacture by the strong acid process are subject, supplier notification not required)', 'Isopropyl alcohol, natural, >=98%, FG', 'Phenolphthalein Solution, Alcoholic 0.5%', '2-Propanol 100 microg/mL in Acetonitrile', 'Isopropyl alcohol, >=99.7%, FCC, FG', '2-Propanol, SAJ first grade, >=99.0%', '140-EP2269975A2', '140-EP2269977A2', '140-EP2269989A1', '140-EP2269993A1', '140-EP2269994A1', '140-EP2269997A2', '140-EP2270000A1', '140-EP2270003A1', '140-EP2270008A1', '140-EP2270009A1', '140-EP2270011A1', '140-EP2270012A1', '140-EP2270013A1', '140-EP2270014A1', '140-EP2270113A1', '140-EP2272516A2', '140-EP2272517A1', '140-EP2272537A2', '140-EP2272813A2', '140-EP2272826A1', '140-EP2272827A1', '140-EP2272830A1', '140-EP2272832A1', '140-EP2272837A1', '140-EP2272839A1', '140-EP2272840A1', '140-EP2272841A1', '140-EP2272849A1', '140-EP2272935A1', '140-EP2274983A1', '140-EP2275398A1', '140-EP2275401A1', '140-EP2275404A1', '140-EP2275410A1', '140-EP2275415A2', '140-EP2275419A2', '140-EP2275423A1', '140-EP2275424A1', '140-EP2275425A1', '140-EP2275427A1', '140-EP2275469A1', '140-EP2277507A1', '140-EP2277848A1', '140-EP2277865A1', '140-EP2277866A1', '140-EP2277867A2', '140-EP2277868A1', '140-EP2277869A1', '140-EP2277870A1', '140-EP2277875A2', '140-EP2277876A1', '140-EP2277877A1', '140-EP2277878A1', '140-EP2277881A1', '140-EP2280003A2', '140-EP2280005A1', '140-EP2280006A1', '140-EP2280007A1', '140-EP2280014A2', '140-EP2281559A1', '140-EP2281817A1', '140-EP2281818A1', '140-EP2281821A1', '140-EP2281824A1', '140-EP2281899A2', '140-EP2283811A1', '140-EP2284158A1', '140-EP2284165A1', '140-EP2284166A1', '140-EP2284167A2', '140-EP2284168A2', '140-EP2284169A1', '140-EP2284170A1', '140-EP2284174A1', '140-EP2284178A2', '140-EP2284179A2', '140-EP2286795A1', '140-EP2286811A1', '140-EP2286812A1', '140-EP2286915A2', '140-EP2287152A2', '140-EP2287153A1', '140-EP2287154A1', '140-EP2287155A1', '140-EP2287158A1', '140-EP2287161A1', '140-EP2287162A1', '140-EP2287165A2', '140-EP2287166A2', '140-EP2287167A1', '140-EP2287168A2', '140-EP2287940A1', '140-EP2289509A2', '140-EP2289868A1', '140-EP2289879A1', '140-EP2289881A1', '140-EP2289884A1', '140-EP2289885A1', '140-EP2289890A1', '140-EP2289892A1', '140-EP2289897A1', '140-EP2289965A1', '140-EP2292222A1', '140-EP2292233A2', '140-EP2292234A1', '140-EP2292593A2', '140-EP2292597A1', '140-EP2292609A1', '140-EP2292612A2', '140-EP2292613A1', '140-EP2292614A1', '140-EP2292617A1', '140-EP2292620A2', '140-EP2292621A1', '140-EP2292622A1', '140-EP2292625A1', '140-EP2292628A2', '140-EP2295055A2', '140-EP2295401A2', '140-EP2295402A2', '140-EP2295406A1', '140-EP2295411A1', '140-EP2295415A1', '140-EP2295417A1', '140-EP2295422A2', '140-EP2295423A1', '140-EP2295424A1', '140-EP2295426A1', '140-EP2295427A1', '140-EP2295429A1', '140-EP2295432A1', '140-EP2295435A1', '140-EP2295436A1', '140-EP2295437A1', '140-EP2298305A1', '140-EP2298313A1', '140-EP2298729A1', '140-EP2298732A1', '140-EP2298735A1', '140-EP2298742A1', '140-EP2298746A1', '140-EP2298747A1', '140-EP2298749A1', '140-EP2298752A1', '140-EP2298755A1', '140-EP2298760A1', '140-EP2298761A1', '140-EP2298763A1', '140-EP2298767A1', '140-EP2298768A1', '140-EP2298769A1', '140-EP2298770A1', '140-EP2298773A1', '140-EP2298775A1', '140-EP2298776A1', '140-EP2298778A1', '140-EP2298828A1', '140-EP2299785A1', '140-EP2301627A1', '140-EP2301912A2', '140-EP2301913A1', '140-EP2301914A1', '140-EP2301916A2', '140-EP2301925A1', '140-EP2301931A1', '140-EP2301934A1', '140-EP2301940A1', '140-EP2301983A1', '140-EP2302003A1', '140-EP2305033A1', '140-EP2305625A1', '140-EP2305629A1', '140-EP2305633A1', '140-EP2305641A1', '140-EP2305643A1', '140-EP2305647A1', '140-EP2305649A1', '140-EP2305651A1', '140-EP2305658A1', '140-EP2305660A1', '140-EP2305662A1', '140-EP2305663A1', '140-EP2305666A1', '140-EP2305668A1', '140-EP2305670A1', '140-EP2305671A1', '140-EP2305679A1', '140-EP2305681A1', '140-EP2305682A1', '140-EP2305683A1', '140-EP2305684A1', '140-EP2305687A1', '140-EP2305688A1', '140-EP2305695A2', '140-EP2305696A2', '140-EP2305697A2', '140-EP2305698A2', '140-EP2305825A1', '140-EP2306788A1', '140-EP2306789A1', '140-EP2308471A1', '140-EP2308492A1', '140-EP2308562A2', '140-EP2308812A2', '140-EP2308828A2', '140-EP2308839A1', '140-EP2308849A1', '140-EP2308850A1', '140-EP2308851A1', '140-EP2308854A1', '140-EP2308855A1', '140-EP2308857A1', '140-EP2308867A2', '140-EP2308869A1', '140-EP2308870A2', '140-EP2308873A1', '140-EP2308877A1', '140-EP2308878A2', '140-EP2308879A1', '140-EP2308926A1', '140-EP2309564A1', '140-EP2311453A1', '140-EP2311464A1', '140-EP2311494A1', '140-EP2311796A1', '140-EP2311797A1', '140-EP2311798A1', '140-EP2311799A1', '140-EP2311801A1', '140-EP2311802A1', '140-EP2311803A1', '140-EP2311806A2', '140-EP2311808A1', '140-EP2311811A1', '140-EP2311812A1', '140-EP2311813A1', '140-EP2311814A1', '140-EP2311815A1', '140-EP2311820A1', '140-EP2311821A1', '140-EP2311823A1', '140-EP2311824A1', '140-EP2311825A1', '140-EP2311829A1', '140-EP2311830A1', '140-EP2311831A1', '140-EP2311832A1', '140-EP2311833A1', '140-EP2311838A1', '140-EP2311839A1', '140-EP2311842A2', '140-EP2314558A1', '140-EP2314576A1', '140-EP2314577A1', '140-EP2314578A1', '140-EP2314585A1', '140-EP2314587A1', '140-EP2314589A1', '140-EP2314591A1', '140-EP2316837A1', '140-EP2371808A1', '140-EP2371814A1', '140-EP2372017A1', '140-EP2374454A1', '140-EP2374790A1', '140-EP2374791A1', '140-EP2380874A2', '141-EP2269977A2', '141-EP2269989A1', '141-EP2270007A1', '141-EP2270017A1', '141-EP2270113A1', '141-EP2270114A1', '141-EP2272537A2', '141-EP2272848A1', '141-EP2272849A1', '141-EP2272935A1', '141-EP2272972A1', '141-EP2272973A1', '141-EP2274983A1', '141-EP2275409A1', '141-EP2275411A2', '141-EP2275469A1', '141-EP2277565A2', '141-EP2277566A2', '141-EP2277567A1', '141-EP2277568A2', '141-EP2277569A2', '141-EP2277570A2', '141-EP2277866A1', '141-EP2277867A2', '141-EP2277872A1', '141-EP2277879A1', '141-EP2277945A1', '141-EP2280003A2', '141-EP2280010A2', '141-EP2280014A2', '141-EP2284159A1', '141-EP2284160A1', '141-EP2284165A1', '141-EP2284167A2', '141-EP2284168A2', '141-EP2284169A1', '141-EP2286811A1', '141-EP2287152A2', '141-EP2287161A1', '141-EP2287162A1', '141-EP2287165A2', '141-EP2287166A2', '141-EP2287168A2', '141-EP2289877A1', '141-EP2289890A1', '141-EP2289892A1', '141-EP2292227A2', '141-EP2292280A1', '141-EP2292590A2', '141-EP2292601A1', '141-EP2292602A1', '141-EP2292603A1', '141-EP2292606A1', '141-EP2292612A2', '141-EP2292618A1', '141-EP2292619A1', '141-EP2292620A2', '141-EP2292622A1', '141-EP2293650A1', '141-EP2295402A2', '141-EP2295409A1', '141-EP2295415A1', '141-EP2295417A1', '141-EP2295421A1', '141-EP2295430A2', '141-EP2295431A2', '141-EP2295437A1', '141-EP2298734A2', '141-EP2298735A1', '141-EP2298737A1', '141-EP2298739A1', '141-EP2298740A1', '141-EP2298741A1', '141-EP2298747A1', '141-EP2298750A1', '141-EP2298758A1', '141-EP2298759A1', '141-EP2298767A1', '141-EP2298768A1', '141-EP2298770A1', '141-EP2298771A2', '141-EP2298774A1', '141-EP2298775A1', '141-EP2298778A1', '141-EP2298828A1', '141-EP2299509A1', '141-EP2299510A1', '141-EP2301534A1', '141-EP2301920A1', '141-EP2301921A1', '141-EP2301926A1', '141-EP2301929A1', '141-EP2301935A1', '141-EP2301936A1', '141-EP2301941A1', '141-EP2305219A1', '141-EP2305243A1', '141-EP2305644A1', '141-EP2305649A1', '141-EP2305652A2', '141-EP2305664A1', '141-EP2305667A2', '141-EP2305668A1', '141-EP2305670A1', '141-EP2305672A1', '141-EP2305674A1', '141-EP2305680A2', '141-EP2305682A1', '141-EP2305683A1', '141-EP2305684A1', '141-EP2305769A2', '141-EP2308562A2', '141-EP2308812A2', '141-EP2308843A1', '141-EP2308857A1', '141-EP2308858A1', '141-EP2308861A1', '141-EP2308867A2', '141-EP2308870A2', '141-EP2308872A1', '141-EP2308873A1', '141-EP2308875A1', '141-EP2308879A1', '141-EP2309584A1', '141-EP2311451A1', '141-EP2311815A1', '141-EP2311816A1', '141-EP2311817A1', '141-EP2311824A1', '141-EP2311826A2', '141-EP2311831A1', '141-EP2311837A1', '141-EP2311839A1', '141-EP2311840A1', '141-EP2314558A1', '141-EP2314587A1', '141-EP2314589A1', '141-EP2316450A1', '141-EP2316470A2', '141-EP2316828A1', '141-EP2316829A1', '141-EP2316831A1', '141-EP2316834A1', '141-EP2316835A1', '141-EP2316836A1', '141-EP2316837A1', '141-EP2316905A1', '141-EP2316906A2', '141-EP2371810A1', '141-EP2371812A1', '141-EP2372017A1', '141-EP2372804A1', '141-EP2374454A1', '141-EP2374526A1', '141-EP2374783A1', '141-EP2378585A1', '2-Propanol, JIS special grade, >=99.5%', '2-Propanol, Laboratory Reagent, >=99.5%', '2-Propanol, meets USP testing specifications', 'FT-0613371', 'FT-0670483', 'I0163', 'I0164', 'I0277', 'Isopropanol, 99.5% anhydrous, 50 ppm water', '5051-EP2269975A2', '5051-EP2269977A2', '5051-EP2269986A1', '5051-EP2269997A2', '5051-EP2269999A1', '5051-EP2270008A1', '5051-EP2270015A1', '5051-EP2272817A1', '5051-EP2272825A2', '5051-EP2272829A2', '5051-EP2272835A1', '5051-EP2272844A1', '5051-EP2274983A1', '5051-EP2275403A1', '5051-EP2275411A2', '5051-EP2275413A1', '5051-EP2275414A1', '5051-EP2275415A2', '5051-EP2275423A1', '5051-EP2277858A1', '5051-EP2277871A1', '5051-EP2280001A1', '5051-EP2281821A1', '5051-EP2284148A1', '5051-EP2284157A1', '5051-EP2284167A2', '5051-EP2284168A2', '5051-EP2284169A1', '5051-EP2286811A1', '5051-EP2287153A1', '5051-EP2287155A1', '5051-EP2287156A1', '5051-EP2287161A1', '5051-EP2287162A1', '5051-EP2289509A2', '5051-EP2289510A1', '5051-EP2289879A1', '5051-EP2289890A1', '5051-EP2289894A2', '5051-EP2292589A1', '5051-EP2292592A1', '5051-EP2292607A2', '5051-EP2292617A1', '5051-EP2295401A2', '5051-EP2295406A1', '5051-EP2295409A1', '5051-EP2295414A1', '5051-EP2295423A1', '5051-EP2295437A1', '5051-EP2298735A1', '5051-EP2298747A1', '5051-EP2298753A1', '5051-EP2298755A1', '5051-EP2298761A1', '5051-EP2298763A1', '5051-EP2298768A1', '5051-EP2298770A1', '5051-EP2298772A1', '5051-EP2298775A1', '5051-EP2301544A1', '5051-EP2301627A1', '5051-EP2301911A1', '5051-EP2301919A1', '5051-EP2305254A1', '5051-EP2305625A1', '5051-EP2305642A2', '5051-EP2305647A1', '5051-EP2305655A2', '5051-EP2305662A1', '5051-EP2305667A2', '5051-EP2305671A1', '5051-EP2305672A1', '5051-EP2305676A1', '5051-EP2305682A1', '5051-EP2305684A1', '5051-EP2305687A1', '5051-EP2305769A2', '5051-EP2305808A1', '5051-EP2308492A1', '5051-EP2308838A1', '5051-EP2308839A1', '5051-EP2308857A1', '5051-EP2308864A1', '5051-EP2308866A1', '5051-EP2308877A1', '5051-EP2308879A1', '5051-EP2311805A1', '5051-EP2311807A1', '5051-EP2311830A1', '5051-EP2314581A1', '5051-EP2314586A1', '5051-EP2314591A1', '5051-EP2316827A1', '5051-EP2371805A1', '5051-EP2371811A2', '5051-EP2374783A1', '5051-EP2377841A1', '5051-EP2377848A1', '5051-EP2380568A1', 'C01845', 'D00137', 'Q16392', '11948-EP2270006A1', '11948-EP2270011A1', '11948-EP2272537A2', '11948-EP2275423A1', '11948-EP2277866A1', '11948-EP2280014A2', '11948-EP2281559A1', '11948-EP2284148A1', '11948-EP2284174A1', '11948-EP2287168A2', '11948-EP2289509A2', '11948-EP2292590A2', '11948-EP2292612A2', '11948-EP2292622A1', '11948-EP2292628A2', '11948-EP2295401A2', '11948-EP2295409A1', '11948-EP2298729A1', '11948-EP2298734A2', '11948-EP2301534A1', '11948-EP2301939A1', '11948-EP2305250A1', '11948-EP2305652A2', '11948-EP2305663A1', '11948-EP2305667A2', '11948-EP2305682A1', '11948-EP2305695A2', '11948-EP2305696A2', '11948-EP2305697A2', '11948-EP2305698A2', '11948-EP2308812A2', '11948-EP2308873A1', '11948-EP2308879A1', '11948-EP2311451A1', '11948-EP2311824A1', '11948-EP2311831A1', '11948-EP2316450A1', '32837-EP2284167A2', '32837-EP2284168A2', '32837-EP2295411A1', '32837-EP2301933A1', '32837-EP2308812A2', '32837-EP2308855A1', '32837-EP2311820A1', '32837-EP2311827A1', '32837-EP2311850A1', '40330-EP2269977A2', '40330-EP2269979A1', '40330-EP2270003A1', '40330-EP2289881A1', '40330-EP2289886A1', '40330-EP2292222A1', '40330-EP2295402A2', '40330-EP2295423A1', '40330-EP2298761A1', '40330-EP2301544A1', '40330-EP2305682A1', '40330-EP2305684A1', '40330-EP2305687A1', '40330-EP2308848A1', '40330-EP2308867A2', '40330-EP2308870A2', '40330-EP2308879A1', '40330-EP2311830A1', '40330-EP2371805A1', '40330-EP2380871A1', '45166-EP2272813A2', '45166-EP2272849A1', '45166-EP2289509A2', '45166-EP2289879A1', '45166-EP2292593A2', '45166-EP2292616A1', '45166-EP2292619A1', '45166-EP2292622A1', '45166-EP2298773A1', '45166-EP2305250A1', '45166-EP2305659A1', '45166-EP2311821A1', '45166-EP2380873A1', '45166-EP2380874A2', '51765-EP2270114A1', '51765-EP2277866A1', '51765-EP2292628A2', '51765-EP2308510A1', '51765-EP2308867A2', '51765-EP2308870A2', '51765-EP2311824A1', '97840-EP2269992A1', '97840-EP2289885A1', '97840-EP2289896A1', '97840-EP2292608A1', '97840-EP2298749A1', '97840-EP2305685A1', '97840-EP2305686A1', '97840-EP2380874A2', 'SR-01000944474', 'J-510285', 'SR-01000944474-1', '2-Propanol, ACS spectrophotometric grade, >=99.5%', '2-Propanol, p.a., ACS reagent, reag. ISO, 99.8%', '2-Propanol, reag. ISO, UV HPLC spectroscopic, 99.7%', '2-Propanol, BioReagent, for molecular biology, >=99.5%', '2-Propanol, electronic grade, 99.999% trace metals basis', '2-Propanol, puriss. p.a., ACS reagent, >=99.8% (GC)', '2-Propanol, Vetec(TM) reagent grade, anhydrous, >=99.5%', '2-Propanol, BioUltra, for molecular biology, >=99.5% (GC)', 'Isopropanol or isopropyl alcohol [UN1219]  [Flammable liquid]', 'Isopropyl alcohol, EuropePharmacopoeia (EP) Reference Standard', 'Isopropyl alcohol, meets EP, BP, USP testing specifications', '2-Propanol, >=99.7%, suitable for absorption spectrum analysis', '2-Propanol, semiconductor grade PURANAL(TM) (Honeywell 17829)', '2-Propanol, United States Pharmacopeia (USP) Reference Standard', '2-Propanol, >=99.7%, for residue analysis, suitable for 1000 per JIS', '2-Propanol, HPLC Plus, for HPLC, GC, and residue analysis, 99.9%', '2-Propanol, Pharmaceutical Secondary Standard; Certified Reference Material', '2-Propanol, semiconductor grade MOS PURANAL(TM) (Honeywell 17930)', '2-Propanol, semiconductor grade SLSI PURANAL(TM) (Honeywell 17030)', '2-Propanol, semiconductor grade ULSI PURANAL(TM) (Honeywell 17022)', '2-Propanol, semiconductor grade VLSI PURANAL(TM) (Honeywell 17604)', '2-Propanol, HPLC Plus, for HPLC, GC, and residue analysis, 99.9%, poly coated bottles', '2-Propanol, puriss. p.a., ACS reagent, reag. ISO, reag. Ph. Eur., >=99.8% (GC)', '2-Propanol, puriss., meets analytical specification of Ph. Eur., BP, USP, >=99.5% (GC)']"