Number;IUPAC_name;Charge;Molecular Formula;Molecular Weight [g/mol];Isomeric SMILES;Pubchem CID;GasPhaseAcidity_B2PLYP//DLPNO-CCSD(T) [kcal/mol];GSolv_Ion_Water [kcal/mol];GSolv_Ion_DMSO [kcal/mol];GSolv_Ion_Acetonitrile [kcal/mol];GSolv_Ion_MeOH [kcal/mol];Gsolv_Neutral_Water_exp [kcal/mol];Gsolv_Neutral_DMSO_TZVPD-Fine [kcal/mol];Gsolv_Neutral_Acetonitrile_TZVPD-Fine [kcal/mol];Gsolv_Neutral_MeOH_TZVPD-Fine [kcal/mol];pka_water;pka_DMSO;pka_Acetonitrile;pka_MeOH;Synonyms
22;N,N-dimethylaniline;1;C8H11N;121.18;CN(C)C1=CC=CC=C1;949;218.0;-53.5;;;;-3.6;-6.8;-7.4;-7.0;5.1;;;;['N,N-dimethylaniline', '121-69-7', 'Dimethylphenylamine', 'Benzenamine, N,N-dimethyl-', 'N,N-Dimethylbenzenamine', '(Dimethylamino)benzene', 'N,N-Dimethylphenylamine', 'N,N-Dimethylbenzeneamine', 'Dimethylaminobenzene', 'Dwumetyloanilina', 'N,N-(Dimethylamino)benzene', 'N,N-dimethylanilin', 'Aniline, N,N-dimethyl-', 'Versneller NL 63/10', 'Dimethyl-phenyl-amine', 'NCI-C56428', 'NSC 7195', 'NL 63-10P', 'N,N-Dimethyl-N-phenylamine', 'N,N-DIMETHYL-ANILINE', 'UNII-7426719369', 'CHEBI:16269', 'DSSTox_CID_507', 'DSSTox_RID_75629', 'DSSTox_GSID_20507', 'Dimethylaniline, N,N-', 'dimethyl aniline', 'Dwumetyloanilina [Polish]', 'CAS-121-69-7', 'N-N-Dimethylaniline', 'CCRIS 2381', 'N, N-Dimethylaniline', 'HSDB 1179', 'N,N-dimethylaminobenzene', 'EINECS 204-493-5', 'UN2253', 'dimethyl-aniline', 'AI3-17284', 'n-dimethylaniline', 'N,N-Dmethylanlne', 'N,N-dimethyaniline', 'N,N-dimethylamline', 'N,N dimethylaniline', 'N,N-dimethylaniiine', 'PhNMe2', 'n,n,-dimethylaniline', 'N,N-dirnethylaniline', 'N,N-dimethyl aniline', 'N,N-dimethyl-Benzenamine', 'ACMC-1AU9Z', 'EC 204-493-5', 'N,N-Dimethylaniline sulfate', 'PhN(CH3)2', 'SCHEMBL8277', 'N,N-Dimethylaniline, 99%', 'MLS002222341', 'BIDD:ER0332', 'N,N-Dimethyl-N-phenylamine #', 'CHEMBL371654', 'DTXSID2020507', 'N,N-Dimethylaniline [UN2253]', 'N,N-dimethylaniline,sulfuric acid', 'NSC7195', 'WLN: 1N1 & R', 'NSC-7195', 'N,N-Dimethylaniline, LR, >=99%', 'Tox21_201813', 'Tox21_300036', 'MFCD00008304', 'STL268843', 'ZINC12358697', 'AKOS000119088', 'MCULE-7231102072', 'UN 2253', 'NCGC00090724-01', 'NCGC00090724-02', 'NCGC00090724-03', 'NCGC00254056-01', 'NCGC00259362-01', 'LS-13434', 'SMR001252235', 'N,N-Dimethylaniline [UN2253]  [Poison]', 'N,N-Dimethylaniline, ReagentPlus(R), 99%', 'D0665', 'D3866', 'N,N-Dimethylaniline, for synthesis, 99.5%', '6124-EP0930075A1', '6124-EP2269977A2', '6124-EP2269989A1', '6124-EP2275411A2', '6124-EP2281563A1', '6124-EP2281815A1', '6124-EP2281817A1', '6124-EP2284174A1', '6124-EP2287160A1', '6124-EP2287165A2', '6124-EP2287166A2', '6124-EP2289868A1', '6124-EP2292620A2', '6124-EP2295415A1', '6124-EP2295430A2', '6124-EP2295431A2', '6124-EP2298731A1', '6124-EP2298750A1', '6124-EP2298763A1', '6124-EP2298772A1', '6124-EP2298774A1', '6124-EP2301926A1', '6124-EP2301933A1', '6124-EP2305633A1', '6124-EP2305647A1', '6124-EP2308562A2', '6124-EP2308839A1', '6124-EP2308857A1', '6124-EP2308867A2', '6124-EP2308870A2', '6124-EP2308926A1', '6124-EP2311827A1', '6124-EP2314586A1', '6124-EP2374783A1', '6124-EP2377813A1', '6124-EP2377841A1', '6124-EP2380869A1', '6124-EP2380870A1', 'C02846', 'D95371', '23555-EP2280000A1', '23555-EP2281818A1', '23555-EP2284169A1', '23555-EP2284174A1', '23555-EP2287161A1', '23555-EP2287162A1', '23555-EP2287165A2', '23555-EP2287166A2', '23555-EP2292597A1', '23555-EP2292606A1', '23555-EP2292620A2', '23555-EP2298768A1', '23555-EP2314582A1', '23555-EP2371811A2', '135609-EP2277868A1', '135609-EP2277869A1', '135609-EP2277870A1', '135609-EP2292608A1', '162125-EP2281821A1', 'N,N-Dimethylaniline, SAJ first grade, >=99.0%', 'Q310473', 'J-004597', 'J-523266', 'F0001-0348', 'N,N-Dimethylaniline, purified by redistillation, >=99.5%']
23;N,N,4-trimethylaniline;1;C9H13N;135.21;CC1=CC=C(C=C1)N(C)C;7471;221.4;-51.0;;;;-3.7;-6.8;-7.6;-7.2;5.6;;;;['N,N-Dimethyl-p-toluidine', 'N,N,4-TRIMETHYLANILINE', '99-97-8', 'Dimethyl-p-toluidine', 'Benzenamine, N,N,4-trimethyl-', 'N,N-Dimethyl-4-methylaniline', '4,N,N-Trimethylaniline', 'N,N,4-Trimethylbenzenamine', 'N,N-Dimethyl-para-toluidine', 'p-(Dimethylamino)toluene', 'N,N-Dimethyl-4-toluidine', 'N,N-Dimethyl-p-tolylamine', 'p-Methyl-N,N-dimethylaniline', 'NSC 1785', 'p,N,N-Trimethylaniline', 'Dimetil-p-toluidina', 'p-Toluidine, N,N-dimethyl-', 'UNII-S8XC5939VU', 'S8XC5939VU', 'Dimethyl-4-toluidine', '1-(Dimethylamino)-4-methylbenzene', 'NL 65-100', 'DSSTox_CID_1832', 'DSSTox_RID_76355', 'DSSTox_GSID_21832', '4-Dimethylaminotoluene', 'p-N,N-Trimethylaniline', 'CAS-99-97-8', 'Dimetil-p-toluidina [Italian]', 'CCRIS 1001', 'EINECS 202-805-4', 'Benzeneamine,N,N,4-trimethyl-', 'HSDB 8202', 'MFCD00008316', 'N,4-Trimethylaniline', 'nn-dimethyl-p-toluidine', 'ACMC-209sem', 'dimethyl-(p-tolyl)-amine', 'EC 202-805-4', 'Benzenamine,N,4-trimethyl-', 'SCHEMBL28378', 'MLS001050174', '4-dimethylamino-1-methylbenzene', '4,N,N-Trimethylaniline, 99%', 'CHEMBL1462714', 'DTXSID0021832', 'N,N-Dimethyl-p-methylphenylamine', 'NSC1785', 'NSC-1785', 'ZINC1577032', 'Tox21_201370', 'Tox21_300062', 'AC-368', 'AKOS015915159', 'NCGC00091397-01', 'NCGC00091397-02', 'NCGC00091397-03', 'NCGC00254201-01', 'NCGC00258922-01', 'M724', 'SMR001216586', 'D0807', 'FT-0629511', 'FT-0636092', 'FT-0656134', 'E75885', '4,N,N-Trimethylaniline, purum, >=98.0% (GC)', 'Q2051705', 'W-100002', 'N,N-DIBENZYL-1,4,10,13-TETRAOXA-7,16-DIAZACYCLOOCTADECANE', '4,N,N-Trimethylaniline, catalyst grade (for peroxide polymerization), >=98.5% (GC)', '4,N,N-Trimethylaniline, puriss., catalyst for peroxide polymerisations, >=99.0% (GC)']
24;N,N-diethylaniline;1;C10H15N;149.23;CCN(CC)C1=CC=CC=C1;7061;224.9;-48.0;;;;-2.9;-7.3;-8.2;-7.7;6.6;;;;['N,N-DIETHYLANILINE', '91-66-7', 'Diethylaniline', 'Benzenamine, N,N-diethyl-', 'N,N-Diethylanilin', 'Diethylphenylamine', 'N,N-Diethyl aniline', 'Diaethylanilin', 'Phenyldiethylamine', 'Aniline, N,N-diethyl-', 'N,N-Diethylaminobenzene', 'N-Phenyldiethylamine', 'N,N-Diethylbenzenamine', 'UNII-1WR1HJ2PGW', 'NSC 7205', 'N,N-Diethylaniline-4-D', 'diethyl-phenyl-amine', 'N, N-Diethylaniline', '1WR1HJ2PGW', 'DSSTox_CID_1800', 'DSSTox_RID_76334', 'DSSTox_GSID_21800', '2065185-74-0', 'Diaethylanilin [German]', 'diethyl aniline', 'CAS-91-66-7', 'N,N-Diethylanilin [Czech]', 'CCRIS 2847', 'HSDB 1639', 'EINECS 202-088-8', 'Benzamine, N,N-diethyl-', 'UN2432', 'AI3-52227', 'N,N-Dethylanlne', 'N,N-diethyianiline', 'diethylamino benzene', 'Et2NPh', 'PhNEt2', 'MFCD00009042', 'N,N-diethyl-aniline', '(diethylamino)benzene', 'ACMC-20aj0h', 'EC 202-088-8', 'N,N-Diethylaniline, 98%', 'SCHEMBL17594', 'MLS002303040', 'BIDD:GT0823', 'N,N-Diethyl-N-phenylamine #', 'N,N-Diethylaniline, >=99%', 'CHEMBL252071', 'WLN: 2N2&R', 'DTXSID8021800', 'NSC7205', 'HMS3039C12', 'ADAL1185349', 'NSC-7205', 'ZINC5849806', 'Tox21_201496', 'Tox21_300569', 'MFCD31699978', 'STL263867', 'AKOS000119089', 'MCULE-5071230260', 'PS-6141', 'UN 2432', 'NCGC00091331-01', 'NCGC00091331-02', 'NCGC00091331-03', 'NCGC00254308-01', 'NCGC00259047-01', 'SMR001307329', 'SY246295', 'D0475', 'FT-0629467', 'N, N-Diethylaniline [UN2432]  [Poison]', 'N,N-Diethylaniline, purum, >=98.0% (GC)', 'N,N-Diethylaniline 100 microg/mL in Methanol', 'N,N-Diethylaniline, puriss. p.a., >=99.5%', 'J-523236', 'Q1482984', 'Z57770738', 'F0001-2220']
25;naphthalen-1-amine;1;C10H9N;143.18;C1=CC=C2C(=C1)C=CC=C2N;8640;206.1;-67.5;;;-73.0;-7.3;-12.0;-11.0;-10.7;3.9;;;5.4;['1-NAPHTHYLAMINE', '1-Aminonaphthalene', '134-32-7', 'naphthalen-1-amine', '1-Naphthalenamine', 'alpha-Naphthylamine', 'Naphthalen-1-ylamine', 'Naphthalidine', 'Naphthylamine', 'Naphthalidam', '1-Naphthalamine', 'Naphthalenamine', 'Fast Garnet Base B', 'alpha-Aminonaphthalene', '1-Naphthylamin', '1-Naftilamina', 'Alfanaftilamina', 'Fast Garnet B Base', '1-Aminonaftalen', '1-Naftylamine', '1-Naftylamin', 'Alfa-naftyloamina', 'RCRA waste number U167', 'C.I. Azoic Diazo Component 114', 'CHEBI:50450', '1-NAPHYLAMINE', 'UNII-9753I242R5', 'CHEMBL57394', '1-Naphthalenamine, homopolymer', 'MFCD00004016', 'DSSTox_CID_920', '9753I242R5', 'DSSTox_RID_75867', 'DSSTox_GSID_20920', '1-Naftylamin [Czech]', '1-Naftylamine [Dutch]', 'Naphthaleneamine', '1-Naphthylamine, analytical standard', 'alpha-Naftalamin', 'alpha-Naftylamin', '1-Aminonaftalen [Czech]', '1-Naftilamina [Spanish]', '1-Naphthylamin [German]', 'Alfanaftilamina [Italian]', 'alpha-Naftalamin [Czech]', 'alpha-Naftylamin [Czech]', '1-Naphthaylamine', 'alfa-Naftyloamina [Polish]', 'alpha Naphthylamine', 'Nitrate Reagent A', '53162-00-8', 'CAS-134-32-7', 'CCRIS 423', '.alpha.-Naphthylamine', 'CI Azoic Diazo Component 114', '1-Naphthylamine, technical grade', 'HSDB 1080', '1-Naphthylamine solution', 'EINECS 205-138-7', 'UN2077', 'RCRA waste no. U167', 'BRN 0386133', 'CI 37265', 'aminonaphthalene', 'naphthyl-amine', '1-napthylamine', 'AI3-00085', '1-aminonaphthalen', '1-naphthyl amine', '1-naphthaleneamine', '1-amino napthalene', '1-naphthalenylamine', '.alpha.-Naftalamin', '.alpha.-Naftylamin', 'naphthalen-1-yl-amine', 'ACMC-209buj', '.alpha.-Aminonaphthalene', 'ALPHA NAPTHYLAMINE', '1-AMINENAPHTHALENE', 'C.I. 37265', '1-Aminonaphthalene Solution', 'EC 205-138-7', 'SCHEMBL9029', '4-12-00-03009 (Beilstein Handbook Reference)', 'ALPHA-NAPHTHYLAMINE-D7', 'SCHEMBL7738276', 'SCHEMBL8059977', '1-Naphthylamine, >=99.0%', 'DTXSID7020920', 'TIMTEC-BB SBB040451', 'OTAVA-BB 1507828', 'LABOTEST-BB LTBB002715', '1-Naphthylamine, p.a., 99.0%', 'ZINC1673028', 'AKOS BBS-00003569', 'Nitrate Reagent A, for microbiology', 'Tox21_201233', 'Tox21_302805', 'BBL013044', 'BDBM50282489', 'STK301604', 'AKOS000119159', 'AS02473', 'LS41003', 'MCULE-8686083679', 'UN 2077', 'NCGC00091092-01', 'NCGC00091092-02', 'NCGC00091092-03', 'NCGC00091092-04', 'NCGC00256472-01', 'NCGC00258785-01', '25168-10-9', 'AC-10635', 'AS-13623', 'I974', 'alpha-Naphthylamine [UN2077]  [Poison]', 'DB-063020', 'FT-0608132', 'FT-0622384', 'N0052', 'N0165', 'AB00443633-03', 'A806762', 'Q161655', 'W-108286', 'Z57127984', 'F2190-0453']
26;aziridine;1;C2H5N;43.07;C1CN1;9033;;;;;;-4.5;-3.6;-3.8;-4.7;8;;;;"['Aziridine', 'ETHYLENEIMINE', 'Ethylenimine', '151-56-4', 'Azacyclopropane', 'Dimethyleneimine', 'Polyethyleneimine', '9002-98-6', 'Ethylene imine', 'Dihydroazirene', 'Aziran', 'Dihydro-1H-azirine', 'Aethylenimin', 'Ethyleenimine', 'Etilenimina', 'Aziridin', 'Everamine', 'Polymin', 'Aziridine, homopolymer', '1H-Azirine, dihydro-', 'Polymine P', 'Polymin P', 'Polymin FL', 'Montrek 6', 'Ethylenimine resins', 'Everamine 50T', 'Poly(ethylenimine)', 'Everamine 210T', 'RCRA waste number P054', 'Azirane', 'Montrek PEI 6', 'Aziridine homopolymer', 'Epamine 150T', 'Epomine 150T', 'Montrek PEI 18', 'Tydex 12', 'Epomine 1000', 'Ethylenimine, polymers', 'Montrek 1000', 'Epomine P 1000', 'CF 218 (polymer)', 'P 1000 (polyamine)', 'UNII-54P5FEX9FH', 'PEI 1', 'PEI 2', 'PEI 6', 'ENT-50324', 'TL 337', 'Dimethylenimine', 'PEI 12', 'PEI 18', 'PEI 100', 'PEI 400', 'PEI-600', 'PEI 1000', 'PEI 1120', '54P5FEX9FH', 'Polyaziridine', 'Poly(ethyleneimine)(approx. 30% in Water)', 'DTXSID8020599', 'CHEBI:30969', 'Ethylenimine polymer', 'Dihydroazirine', 'Aziridin [German]', 'EI', 'Aethylenimin [German]', 'Ethyleenimine [Dutch]', 'Etilenimina [Italian]', 'PEI 600', 'Dow PEI-6', 'Ethylenimine, homopolymer', 'Dow PEI-600e', 'Dow PEI-18', 'Polyethylenimine, M.W.600', 'CCRIS 296', 'Polyethylenimine, M.W.1800', 'HSDB 540', 'P 1000', 'EINECS 205-793-9', 'UN1185', 'RCRA waste no. P054', 'BRN 0102380', 'C2H5N', 'AI3-50324', 'ethyleneimine;aziridine;ethylenimine', 'Aziridine;Ethylenimine', 'Ethyleneimine, inhibited', 'EC 205-793-9', 'WLN: /T3MTJ/', '5-20-01-00003 (Beilstein Handbook Reference)', 'UN 1185 (Salt/Mix)', 'CHEMBL540990', 'Ethoxylated polyethylenimine,000', 'BCP29842', 'STR07159', 'MFCD00039669', 'NSC124034', 'NSC124035', 'NSC124036', 'NSC134422', 'NSC196335', 'STL168030', 'Aziridine 100 microg/mL in Methanol', 'AKOS005366671', 'NSC-124034', 'NSC-124035', 'NSC-124036', 'NSC-134422', 'NSC-196335', 'CS-0058423', 'FT-0688199', 'FT-0699349', 'W3310', 'Ethyleneimine, inhibited [UN1185]  [Poison]', '27146-EP2269983A1', '27146-EP2269984A1', '27146-EP2270010A1', '27146-EP2272972A1', '27146-EP2272973A1', '27146-EP2275408A1', '27146-EP2277872A1', '27146-EP2281818A1', '27146-EP2287152A2', '27146-EP2292593A2', '27146-EP2292606A1', '27146-EP2292611A1', '27146-EP2295399A2', '27146-EP2298312A1', '27146-EP2298729A1', '27146-EP2298763A1', '27146-EP2298778A1', '27146-EP2301627A1', '27146-EP2308510A1', '27146-EP2308562A2', '27146-EP2308857A1', '27146-EP2308861A1', '27146-EP2311815A1', '27146-EP2314575A1', '27146-EP2371811A2', '34090-EP2272537A2', '34090-EP2295055A2', '34090-EP2295416A2', '34090-EP2298748A2', '34090-EP2305642A2', '34090-EP2311453A1', '56058-EP2280008A2', '56058-EP2298734A2', '56058-EP2298744A2', '56058-EP2298764A1', '56058-EP2298765A1', '56058-EP2301930A1', '56058-EP2305033A1', '56058-EP2305254A1', '56058-EP2308871A1', '56058-EP2308873A1', '151E564', '190357-EP2275408A1', 'Q409141', 'Aziridine (Ethyleneimine), stabilized with 1-2% NaOH']"
27;azetidine;1;C3H7N;57.09;C1CNC1;10422;217.5;-64.5;;;;-5.6;-3.3;-3.6;-5.4;11.3;;;;"['AZETIDINE', '503-29-7', 'Azacyclobutane', 'Trimethylene imine', 'Trimethylenimine', '1,3-Propylenimine', 'Azetidine, homopolymer', 'Azetidin', 'UNII-37S883XDWR', '37S883XDWR', 'CHEBI:30968', '53860-05-2', 'Azetidine, L-', 'Acetidine', 'Trimethyleneimine', 'Azete, tetrahydro-', 'EINECS 207-963-8', 'Azetidine, 98%', 'MFCD00005165', 'AI3-61395', 'CHEMBL2171713', 'DTXSID8060117', 'NIOSH/CM4290000', 'BCP22506', 'EBD267084', 'ZINC14951819', 'AKOS000121515', 'GC10189', 'SB52174', 'PS-11989', 'DB-023025', 'AM20080889', 'BB 0254753', 'CM42900000', 'FT-0649642', '24816-EP2270010A1', '24816-EP2272517A1', '24816-EP2272832A1', '24816-EP2272972A1', '24816-EP2272973A1', '24816-EP2275401A1', '24816-EP2275412A1', '24816-EP2277872A1', '24816-EP2280001A1', '24816-EP2281815A1', '24816-EP2281818A1', '24816-EP2288610A1', '24816-EP2289893A1', '24816-EP2292593A2', '24816-EP2292611A1', '24816-EP2292619A1', '24816-EP2295399A2', '24816-EP2298763A1', '24816-EP2298767A1', '24816-EP2300422A1', '24816-EP2301627A1', '24816-EP2301929A1', '24816-EP2301933A1', '24816-EP2301935A1', '24816-EP2305250A1', '24816-EP2305674A1', '24816-EP2305682A1', '24816-EP2305695A2', '24816-EP2305696A2', '24816-EP2305697A2', '24816-EP2305698A2', '24816-EP2308510A1', '24816-EP2308562A2', '24816-EP2308812A2', '24816-EP2308840A1', '24816-EP2308857A1', '24816-EP2308879A1', '24816-EP2311802A1', '24816-EP2311803A1', '24816-EP2311815A1', '24816-EP2311818A1', '24816-EP2311827A1', '24816-EP2311831A1', '24816-EP2313392A1', '24816-EP2313393A1', '24816-EP2314575A1', '24816-EP2314590A1', '24816-EP2371811A2', '53894-EP2288610A1', '53894-EP2308562A2', '503A297', 'A828069', 'Q425376', 'W-105973', '1,3-PROPYLENIMINE;AZACYCLOBUTANE;AZETIDINE;TRIMETHYLENE IMINE']"