Number;IUPAC_name;Charge;Molecular Formula;Molecular Weight [g/mol];Isomeric SMILES;Pubchem CID;GasPhaseAcidity_B2PLYP//DLPNO-CCSD(T) [kcal/mol];GSolv_Ion_Water [kcal/mol];GSolv_Ion_DMSO [kcal/mol];GSolv_Ion_Acetonitrile [kcal/mol];GSolv_Ion_MeOH [kcal/mol];Gsolv_Neutral_Water_exp [kcal/mol];Gsolv_Neutral_DMSO_TZVPD-Fine [kcal/mol];Gsolv_Neutral_Acetonitrile_TZVPD-Fine [kcal/mol];Gsolv_Neutral_MeOH_TZVPD-Fine [kcal/mol];pka_water;pka_DMSO;pka_Acetonitrile;pka_MeOH;Synonyms
58;propan-1-ol;-1;C3H8O;60.1;CCCO;1031;373.0;-94.8;;;;-4.8;-5.8;-5.0;-5.9;16.1;;;;"['1-propanol', 'propanol', 'Propan-1-ol', 'Propyl alcohol', 'n-propanol', '71-23-8', 'n-Propyl alcohol', 'ethylcarbinol', '1-hydroxypropane', 'optal', 'osmosol extra', 'Propylic alcohol', 'Propanol-1', '1-Propyl alcohol', 'Policosanol', 'n-Propan-1-ol', 'Propanolen', 'Propanole', 'Alcohol, propyl', 'Propanoli', 'Ethyl carbinol', 'Alcool propilico', 'Alcool propylique', 'n-Propyl alkohol', 'Propylowy alkohol', '1-PROPONOL', 'propane-1-ol', 'propylalcohol', '142583-61-7', 'NSC 30300', 'n-PrOH', 'UNII-96F264O9SV', 'Propylan-propyl alcohol', 'MFCD00002941', 'CHEBI:28831', '96F264O9SV', 'UN 1274', '1-Propanol, anhydrous', 'Albacol', 'POL', 'Propanole [German]', 'Propanolen [Dutch]', 'Propanol, 1-', 'Propanoli [Italian]', 'Propyl alcohol, normal', 'Caswell No. 709A', 'FEMA Number 2928', 'Propyl alcohol (natural)', '1 Propanol', 'Alcool propilico [Italian]', 'Alcool propylique [French]', 'n-Propyl alkohol [German]', 'Propylowy alkohol [Polish]', 'FEMA No. 2928', 'CCRIS 3202', 'HSDB 115', 'EINECS 200-746-9', 'UN1274', 'EPA Pesticide Chemical Code 047502', 'BRN 1098242', 'Hydroxypropane', 'ethyl methanol', 'n-propylalcohol', 'normal propanol', 'n-Propylalkohol', 'AI3-16115', '3-propanol', 'nPrOH', 'HOPr', 'PrOH', 'normal propyl alcohol', 'N-Propanol ACS grade', 'ACMC-1BIKF', 'n-C3H7OH', '1-Propanol, HPLC Grade', 'DSSTox_CID_1739', 'bmse000446', '1-Propanol, >=99%', 'EC 200-746-9', 'DSSTox_RID_76299', 'DSSTox_GSID_21739', 'WLN: Q3', '4-01-00-01413 (Beilstein Handbook Reference)', 'CHEMBL14687', '1-Propanol, analytical standard', '1-Propanol, JIS special grade', '1-Propanol, >=99%, FG', '1-Propanol, LR, >=99%', 'DTXSID2021739', '1-Propanol, >=99.80%', 'BDBM36153', 'Propyl Alcohol (Fragrance Grade)', '1-Propanol, anhydrous, 99.7%', '1-Propanol, p.a., 99.5%', 'ZINC895969', '1-Propanol, AR, >=99.5%', 'AMY11110', 'NSC30300', 'Tox21_302440', '1-Propanol, Spectrophotometric Grade', 'LMFA05000101', 'n-Propanol or propyl alcohol, normal', 'NSC-30300', 'STL264225', '1-Propanol, natural, >=98%, FG', '1-Propanol, >=99% (GC), purum', 'AKOS000249219', '1-Propanol, for HPLC, >=99.5%', '1-Propanol, for HPLC, >=99.9%', 'DB03175', 'MCULE-6252105126', '1-Propanol, ACS reagent, >=99.5%', '1-Propanol, HPLC grade, >=99.5%', 'CAS-71-23-8', '1-Propanol, purum, >=99.0% (GC)', 'NCGC00255163-01', '1-Propanol 100 microg/mL in Acetonitrile', '1-Propanol, SAJ first grade, >=99.0%', 'Propyl Alcohol (Normal) Reagent Grade ACS', 'FT-0608280', 'FT-0608281', 'FT-0627482', 'P0491', '1-Propanol, UV HPLC spectroscopic, 99.0%', '2537-EP2269989A1', '2537-EP2269993A1', '2537-EP2269994A1', '2537-EP2269995A1', '2537-EP2270000A1', '2537-EP2270012A1', '2537-EP2270013A1', '2537-EP2272516A2', '2537-EP2272517A1', '2537-EP2272832A1', '2537-EP2272841A1', '2537-EP2272843A1', '2537-EP2272846A1', '2537-EP2272849A1', '2537-EP2274983A1', '2537-EP2275413A1', '2537-EP2275424A1', '2537-EP2275469A1', '2537-EP2277507A1', '2537-EP2277865A1', '2537-EP2277866A1', '2537-EP2280000A1', '2537-EP2280005A1', '2537-EP2281817A1', '2537-EP2281818A1', '2537-EP2281821A1', '2537-EP2284169A1', '2537-EP2284174A1', '2537-EP2286795A1', '2537-EP2287154A1', '2537-EP2287156A1', '2537-EP2287161A1', '2537-EP2287162A1', '2537-EP2287940A1', '2537-EP2289868A1', '2537-EP2289884A1', '2537-EP2289892A1', '2537-EP2289965A1', '2537-EP2292597A1', '2537-EP2292606A1', '2537-EP2292612A2', '2537-EP2295053A1', '2537-EP2298313A1', '2537-EP2298731A1', '2537-EP2298747A1', '2537-EP2298767A1', '2537-EP2298772A1', '2537-EP2298773A1', '2537-EP2298828A1', '2537-EP2301983A1', '2537-EP2305642A2', '2537-EP2305647A1', '2537-EP2305649A1', '2537-EP2305658A1', '2537-EP2305667A2', '2537-EP2305670A1', '2537-EP2305673A1', '2537-EP2305681A1', '2537-EP2305687A1', '2537-EP2308839A1', '2537-EP2308840A1', '2537-EP2308849A1', '2537-EP2308850A1', '2537-EP2308857A1', '2537-EP2308866A1', '2537-EP2308874A1', '2537-EP2308877A1', '2537-EP2308926A1', '2537-EP2309564A1', '2537-EP2311801A1', '2537-EP2311802A1', '2537-EP2311803A1', '2537-EP2311807A1', '2537-EP2311808A1', '2537-EP2311829A1', '2537-EP2311832A1', '2537-EP2311833A1', '2537-EP2311834A1', '2537-EP2311838A1', '2537-EP2314558A1', '2537-EP2314576A1', '2537-EP2314579A1', '2537-EP2314585A1', '2537-EP2314591A1', '2537-EP2371797A1', '2537-EP2371798A1', '2537-EP2371800A1', '2537-EP2371811A2', '2537-EP2371814A1', '2537-EP2374780A1', '2537-EP2374781A1', '2537-EP2377510A1', 'C05979', 'Q14985', '27313-EP2269986A1', '27313-EP2269999A1', '27313-EP2272817A1', '27313-EP2275411A2', '27313-EP2275414A1', '27313-EP2280001A1', '27313-EP2281563A1', '27313-EP2281817A1', '27313-EP2281821A1', '27313-EP2287152A2', '27313-EP2287155A1', '27313-EP2287158A1', '27313-EP2292592A1', '27313-EP2295414A1', '27313-EP2298753A1', '27313-EP2298763A1', '27313-EP2298766A1', '27313-EP2298772A1', '27313-EP2301919A1', '27313-EP2305625A1', '27313-EP2305642A2', '27313-EP2305651A1', '27313-EP2305662A1', '27313-EP2305667A2', '27313-EP2305676A1', '27313-EP2305687A1', '27313-EP2308838A1', '27313-EP2308839A1', '27313-EP2308854A1', '27313-EP2308864A1', '27313-EP2308866A1', '27313-EP2308880A1', '27313-EP2311805A1', '27313-EP2311808A1', '27313-EP2311829A1', '27313-EP2311830A1', '27313-EP2314575A1', '27313-EP2314581A1', '27313-EP2371797A1', '27313-EP2371798A1', '27313-EP2374783A1', '27313-EP2377841A1', '27313-EP2380568A1', '28286-EP2272516A2', '28286-EP2275423A1', '28286-EP2277858A1', '28286-EP2277875A2', '28286-EP2280001A1', '28286-EP2289509A2', '28286-EP2289881A1', '28286-EP2289892A1', '28286-EP2292222A1', '28286-EP2292613A1', '28286-EP2292616A1', '28286-EP2295424A1', '28286-EP2295426A1', '28286-EP2295427A1', '28286-EP2295437A1', '28286-EP2298749A1', '28286-EP2298755A1', '28286-EP2298760A1', '28286-EP2298768A1', '28286-EP2298775A1', '28286-EP2302003A1', '28286-EP2305033A1', '28286-EP2305662A1', '28286-EP2305825A1', '28286-EP2308479A2', '28286-EP2308828A2', '28286-EP2308880A1', '28286-EP2311801A1', '28286-EP2311802A1', '28286-EP2311803A1', '28286-EP2311815A1', '28286-EP2311821A1', '28286-EP2311830A1', '28286-EP2314577A1', '28286-EP2314581A1', '28286-EP2371814A1', '28286-EP2380873A1', '33630-EP2298750A1', '33630-EP2311820A1', '136983-EP2275411A2', '136983-EP2292606A1', 'A837125', 'J-505102', '1-Propanol, for inorganic trace analysis, >=99.8%', '1-Propanol, B&J Brand (product of Burdick & Jackson)', 'F0001-1829', 'Z955123580', '1-Propanol, puriss. p.a., Reag. Ph. Eur., >=99.5% (GC)', '1-Propanol, United States Pharmacopeia (USP) Reference Standard', 'n-Propanol or propyl alcohol, normal [UN1274]  [Flammable liquid]', '1-Propanol, Pharmaceutical Secondary Standard; Certified Reference Material', '5VQ', '71-31-8']"