Number;IUPAC_name;Charge;Molecular Formula;Molecular Weight [g/mol];Isomeric SMILES;Pubchem CID;GasPhaseAcidity_B2PLYP//DLPNO-CCSD(T) [kcal/mol];GSolv_Ion_Water [kcal/mol];GSolv_Ion_DMSO [kcal/mol];GSolv_Ion_Acetonitrile [kcal/mol];GSolv_Ion_MeOH [kcal/mol];Gsolv_Neutral_Water_exp [kcal/mol];Gsolv_Neutral_DMSO_TZVPD-Fine [kcal/mol];Gsolv_Neutral_Acetonitrile_TZVPD-Fine [kcal/mol];Gsolv_Neutral_MeOH_TZVPD-Fine [kcal/mol];pka_water;pka_DMSO;pka_Acetonitrile;pka_MeOH;Synonyms
51;propanoic acid;-1;C3H6O2;74.08;CCC(=O)O;1032;340.6;-79.4;;;-74.2;-6.5;-9.1;-7.4;-7.8;4.9;;;9.7;['propionic acid', 'Propanoic acid', '79-09-4', 'ethylformic acid', 'methylacetic acid', 'Carboxyethane', 'Ethanecarboxylic acid', 'Pseudoacetic acid', 'Metacetonic acid', 'Monoprop', 'Luprosil', 'Prozoin', 'Propionoic acid', 'Acide propionique', 'Methyl acetic acid', 'Antischim B', 'Sentry grain preserver', 'C3 acid', 'Tenox P grain preservative', 'Caswell No. 707', 'Propionic acid grain preserver', 'Carboxylic acids, C1-5', 'Propionsaeure', 'Propcorn', 'Propkorn', 'propoic acid', 'Propioic acid', 'acide propanoique', 'FEMA No. 2924', 'Propionic acid (natural)', 'Kyselina propionova', 'Acide propionique [French]', 'Kyselina propionova [Czech]', 'CCRIS 6096', 'EPA Pesticide Chemical Code 077702', 'Propanyl acid', 'HSDB 1192', 'UNII-JHU490RVYR', 'n-propionic acid', 'Toxi-Check', 'AI3-04167', 'CH3-CH2-COOH', 'UN1848', 'BRN 0506071', 'Propionic acid [NF]', 'CHEBI:30768', 'MFCD00002756', 'JHU490RVYR', 'CHEMBL14021', '68937-68-8', 'metacetonate', 'propanate', 'pseudoacetate', 'ethanecarboxylate', 'Propionic acid (NF)', 'Propionic acid [UN1848]  [Corrosive]', 'Propionic acid, >=99.5%', 'C1-5 Carboxylic acids', 'FEMA Number 2924', 'EINECS 201-176-3', 'Luprisol', 'proponic acid', 'proprionic acid', '1-propanoic acid', '2-methylacetic acid', 'EINECS 273-079-4', 'Acid C3', 'EtCO2H', 'Propionic acid, 99%', 'Propanoic acid (9CI)', 'C2H5COOH', 'DSSTox_CID_5961', 'bmse000179', 'Epitope ID:139981', 'Propionic acid, >=99%', 'Propionic acid, 99.5%', 'EC 201-176-3', 'DSSTox_GSID_25961', 'Propionic Acid Reagent Grade', 'NATURAL PROPIONIC ACID', 'Propionic acid (6CI,8CI)', '4-02-00-00695 (Beilstein Handbook Reference)', 'Propionic acid, 99%, FCC', 'ACMC-20977b', 'GTPL1062', 'INS NO.280', 'DTXSID8025961', 'AMY4114', 'INS-280', 'Top distillation cut by-product acids, monobasic (C1-C5)', 'Methylacetic Acid, Propanoic Acid', 'Propionic acid, ACS reagent grade', 'Carboxymethoxylaminehemihydrochloride', 'Propionic acid, analytical standard', 'ZINC6050663', 'Propionic acid, natural, 99%, FG', 'Tox21_304030', 'BDBM50082199', 'LMFA01010003', 'STL168039', 'Propionic acid, feed grade, 98.7%', 'AKOS000118853', 'DB03766', 'MCULE-2199051150', 'UN 1848', 'CAS-79-09-4', 'Propionic acid, for synthesis, 99.5%', 'NCGC00357239-01', 'Propionic acid, >=99.5%, FCC, FG', 'BP-20411', 'E280', 'Propionic acid, ACS reagent, >=99.5%', 'S067', '613-EP2269610A2', '613-EP2269986A1', '613-EP2269988A2', '613-EP2270008A1', '613-EP2270011A1', '613-EP2270113A1', '613-EP2272935A1', '613-EP2275401A1', '613-EP2275407A1', '613-EP2275413A1', '613-EP2277848A1', '613-EP2277858A1', '613-EP2277867A2', '613-EP2277878A1', '613-EP2277880A1', '613-EP2280003A2', '613-EP2280013A1', '613-EP2280014A2', '613-EP2281563A1', '613-EP2281819A1', '613-EP2284146A2', '613-EP2284147A2', '613-EP2284159A1', '613-EP2284160A1', '613-EP2284169A1', '613-EP2284174A1', '613-EP2287152A2', '613-EP2287153A1', '613-EP2287155A1', '613-EP2287156A1', '613-EP2287161A1', '613-EP2287162A1', '613-EP2287168A2', '613-EP2289510A1', '613-EP2289883A1', '613-EP2289890A1', '613-EP2289965A1', '613-EP2292597A1', '613-EP2292599A1', '613-EP2292606A1', '613-EP2292609A1', '613-EP2292610A1', '613-EP2292617A1', '613-EP2292619A1', '613-EP2295055A2', '613-EP2295409A1', '613-EP2295424A1', '613-EP2295435A1', '613-EP2295438A1', '613-EP2298731A1', '613-EP2298735A1', '613-EP2298747A1', '613-EP2298757A2', '613-EP2298763A1', '613-EP2298772A1', '613-EP2298779A1', '613-EP2298828A1', '613-EP2301918A1', '613-EP2301922A1', '613-EP2301924A1', '613-EP2301931A1', '613-EP2301937A1', '613-EP2301940A1', '613-EP2305257A1', '613-EP2305633A1', '613-EP2305641A1', '613-EP2305646A1', '613-EP2305649A1', '613-EP2305651A1', '613-EP2305659A1', '613-EP2305666A1', '613-EP2305683A1', '613-EP2305684A1', '613-EP2305808A1', '613-EP2308838A1', '613-EP2308839A1', '613-EP2308848A1', '613-EP2308851A1', '613-EP2308854A1', '613-EP2308857A1', '613-EP2308858A1', '613-EP2308869A1', '613-EP2309584A1', '613-EP2311453A1', '613-EP2311796A1', '613-EP2311797A1', '613-EP2311798A1', '613-EP2311799A1', '613-EP2311801A1', '613-EP2311802A1', '613-EP2311803A1', '613-EP2311807A1', '613-EP2311809A1', '613-EP2311811A1', '613-EP2311816A1', '613-EP2311817A1', '613-EP2311818A1', '613-EP2311824A1', '613-EP2311830A1', '613-EP2311839A1', '613-EP2311842A2', '613-EP2311850A1', '613-EP2314586A1', '613-EP2314588A1', '613-EP2314589A1', '613-EP2314590A1', '613-EP2314593A1', '613-EP2316457A1', '613-EP2316458A1', '613-EP2316459A1', '613-EP2316825A1', '613-EP2316826A1', '613-EP2316827A1', '613-EP2316828A1', '613-EP2316837A1', '613-EP2316937A1', '613-EP2371803A1', '613-EP2371814A1', '613-EP2377843A1', '613-EP2380568A1', 'E-280', 'FT-0637136', 'FT-0658557', 'P0500', 'Propionic acid, SAJ first grade, >=98.0%', 'C00163', 'D02310', 'Propionic acid 1000 microg/mL in Acetonitrile', '11906-EP2269978A2', '11906-EP2269985A2', '11906-EP2269991A2', '11906-EP2284150A2', '11906-EP2284151A2', '11906-EP2284152A2', '11906-EP2284153A2', '11906-EP2284155A2', '11906-EP2284156A2', '11906-EP2284164A2', '11906-EP2287140A2', '11906-EP2287148A2', '11906-EP2287150A2', '11906-EP2289871A1', '11906-EP2292590A2', '11906-EP2295419A2', '11906-EP2298732A1', '11906-EP2301534A1', '11906-EP2301912A2', '11906-EP2301913A1', '11906-EP2301914A1', '11906-EP2301916A2', '11906-EP2305637A2', '11906-EP2308832A1', '11906-EP2308863A1', '11906-EP2311451A1', '11906-EP2311796A1', '11906-EP2311797A1', '11906-EP2311798A1', '11906-EP2311799A1', '11906-EP2316450A1', '32532-EP2295430A2', '32532-EP2295431A2', '32532-EP2301544A1', '32532-EP2301933A1', '32532-EP2305825A1', '32532-EP2311824A1', '32532-EP2311827A1', 'Propionic acid, puriss. p.a., >=99.5% (GC)', 'Q422956', 'F2191-0098', 'Propionic acid, BioReagent, suitable for insect cell culture, ~99%', 'Propionic acid, United States Pharmacopeia (USP) Reference Standard']
52;hexanoic acid;-1;C6H12O2;116.16;CCCCCC(=O)O;8892;339.4;-77.9;;;;-6.2;-10.1;-8.8;-9.3;4.9;;;;"['HEXANOIC ACID', 'Caproic acid', '142-62-1', 'n-Hexanoic acid', 'Capronic acid', 'n-Caproic acid', 'Butylacetic acid', 'Hexoic acid', 'Pentylformic acid', 'n-Hexylic acid', 'n-Hexoic acid', '1-Hexanoic acid', 'Pentiformic acid', '1-Pentanecarboxylic acid', 'Pentanecarboxylic acid', 'Hexacid 698', 'Hexylic acid', 'Kyselina kapronova', 'NSC 8266', 'UNII-1F8SN134MX', 'MFCD00004421', 'NCIOpen2_005355', 'hexanoic acid (caproic acid)', 'C6:0', 'CHEMBL14184', 'CH3-[CH2]4-COOH', '1F8SN134MX', 'CHEBI:30776', 'NSC8266', 'capronate', 'hexylate', 'pentylformate', 'n-caproate', 'n-hexoate', 'n-hexylate', 'HEXANOIC ACID  (CAPROIC ACID)', '1-hexanoate', '1-pentanecarboxylate', 'DSSTox_CID_1607', 'Hexanoic acid (natural)', 'DSSTox_RID_76233', 'DSSTox_GSID_21607', '68603-84-9', 'Kyselina kapronova [Czech]', 'CAS-142-62-1', 'FEMA No. 2559', 'CCRIS 1347', 'HSDB 6813', 'EINECS 205-550-7', 'UN2829', 'BRN 0773837', 'AI3-07701', 'hexans&#xe4;ure', 'Nat.Hexanoic Acid', '6NA', 'EINECS 274-509-3', 'Caproic Acid,(S)', 'Acid C6', '58454-02-7', 'ethyl 4-butanoic acid', 'Fatty Acid 1210', 'Hexanoic acid, 99%', 'ACMC-1BTHO', 'methyl 5-pentanoic acid', 'Carboxylic acids, C6-18 and C6-18-unsatd. mono- and C8-15-di-', 'Pentane-1-carboxylic acid', 'Hexanoic acid, >=99%', 'n-C5H11COOH', 'Hexanoic acid Caproic acid', 'bmse000351', 'EC 205-550-7', '(C5-C9) Monobasic acids', 'SCHEMBL3867', 'WLN: QV5', 'CH3(CH2)4COOH', '4-02-00-00917 (Beilstein Handbook Reference)', '70248-25-8', '(C6-C12)Alkylcarboxylic acid', 'DTXSID7021607', 'Hexanoic acid-1,2-[13C2]', '(C6-C12) Alkylcarboxylic acid', 'BDBM16433', 'Hexanoic acid, analytical standard', 'NSC-8266', 'STR10048', 'ZINC1529230', 'EINECS 267-013-3', 'EINECS 271-676-4', 'Tox21_201517', 'Tox21_300406', 'LMFA01010006', 'Hexanoic acid, >=98%, FCC, FG', 'AKOS000119844', 'FA(6:0)', 'MCULE-1671810139', 'Caproic acid [UN2829]  [Corrosive]', 'Hexanoic acid, natural, >=98%, FCC', 'NCGC00248020-01', 'NCGC00248020-02', 'NCGC00254504-01', 'NCGC00259067-01', 'Hexanoic acid, purum, >=98.0% (GC)', 'M557', 'Hexanoic acid 10 microg/mL in Acetonitrile', 'FT-0659402', 'FT-0777869', 'H0105', 'Hexanoic acid, natural, >=98%, FCC, FG', 'C01585', 'EC 271-676-4', '11034-EP2269610A2', '11034-EP2270002A1', '11034-EP2277848A1', '11034-EP2284146A2', '11034-EP2284147A2', '11034-EP2289510A1', '11034-EP2298313A1', '11034-EP2316457A1', '11034-EP2316458A1', '11034-EP2316825A1', '11034-EP2316826A1', '11034-EP2316827A1', '11034-EP2316828A1', '16407-EP2275401A1', '16407-EP2281563A1', '16407-EP2284160A1', '16407-EP2289890A1', '16407-EP2305646A1', '16407-EP2305687A1', '16407-EP2311824A1', '16407-EP2311842A2', '16407-EP2316459A1', '16407-EP2374787A1', '16420-EP2275401A1', '16420-EP2281563A1', '16420-EP2289890A1', '16420-EP2305646A1', '16420-EP2311842A2', '16420-EP2316459A1', 'Q422597', 'J-007673', '25401AB4-1ECB-481F-AC91-EAAFC9329BDD', 'Z955123566', 'UNII-13FB83DEYU component FUZZWVXGSFPDMH-UHFFFAOYSA-N']"
53;prop-2-enoic acid;-1;C3H4O2;72.06;C=CC(=O)O;6581;338.0;-77.7;;;-72.2;-6.6;-9.4;-7.4;-7.8;4.3;;;9.3;['ACRYLIC ACID', '2-Propenoic acid', '79-10-7', 'Propenoic acid', 'prop-2-enoic acid', 'Vinylformic acid', 'Acroleic acid', 'Propene acid', 'Ethylenecarboxylic acid', 'POLYACRYLIC ACID', 'Propenoate', 'Polyacrylate', 'Glacial acrylic acid', 'Acrylic acid, glacial', 'Kyselina akrylova', 'RCRA waste number U008', 'Carbopol 934p', 'Acrylic polymer', '9003-01-4', 'UNII-J94PBK7X8S', 'NSC 4765', 'Carbopol 940', 'Acrylic acid, polymer', 'J94PBK7X8S', 'Carbopol', '2-Propenoic acid, homopolymer', 'Acrylic resin', 'Aron', 'Antiprex A', '25987-55-7', 'CHEBI:18308', 'Versicol E9', 'NSC4765', 'Acrylic acid resin', 'Acrysol ase-75', 'C3:1n-1', 'Versicol E 7', 'Versicol E15', 'Acrysol A 1', 'Acrysol A 3', 'Acrysol A 5', 'Acrysol A-1', 'Acrysol AC 5', 'Carbopol 960', 'Carboset 515', 'Primal Ase 60', 'Revacryl A191', 'Versicol K 11', 'Versicol S 25', 'Viscalex HV 30', 'Dispex C40', 'Acrysol WS-24', 'Cyguard 266', 'Joncryl 678', 'Jurimer AC 10H', 'Jurimer AC 10P', 'Nalfloc 636', 'Carboxy vinyl polymer', 'Good-rite K 37', 'Revacryl A 191', 'Junlon 110', 'Polyacrylate elastomers', 'Propenoic acid polymer', 'Viscon 103', 'Good-rite K 702', 'Good-rite K 732', 'Acrylic acid, polymers', 'Good-rite WS 801', 'NCGC00166246-01', 'Acrylic acid homopolymer', 'Polymerized acrylic acid', 'Synthemul 90-588', 'Aron A 10H', 'Atactic poly(acrylic acid)', 'Carboset Resin No. 515', 'OLD 01', 'PA 11M', 'PAA-25', 'Caswell No. 009A', 'Acrylates', 'P 11H', 'P-11H', 'WS 24', 'Acide acrylique', 'Acido acrilio', 'Acido acrilio [Spanish]', 'Acide acrylique [French]', 'WS 801', 'Kyselina akrylova [Czech]', 'Calcium polyacrylate', 'R968', 'CCRIS 737', 'HSDB 1421', 'EINECS 201-177-9', 'Acrylic acid homopolymer calcium salt', 'UN2218', 'RCRA waste no. U008', 'allenediol', 'BRN 0635743', 'AI3-15717', '2-Propenoic acid, homopolymer, calcium salt', 'Acrysol lmw-20X', 'XPA', 'Dow Latex 354', 'Acrylic acid, inhibited', 'ACMC-1CHHZ', 'CH2=CHCOOH', 'DSSTox_CID_28', 'Carbomer 934 (NF)', 'Carbomer 940 (NF)', 'Carbomer 941 (NF)', 'Carbopol 910 (TN)', 'Carbopol 934 (TN)', 'Carbopol 940 (TN)', 'Carbopol 941 (TN)', '9003-04-7', 'Carbomer 934P (NF)', 'Carbopol 934P (TN)', 'Carbomer 910 (USAN)', 'Carbomer 1342 (NF)', 'Carbopol 1342 (TN)', 'EC 201-177-9', 'DSSTox_RID_79425', 'WLN: QV1U1', 'DSSTox_GSID_39229', 'Araldite GT 7004 acrylate', 'Polyacrylic acid calcium salt', '4-02-00-01455 (Beilstein Handbook Reference)', 'UN 2218 (Salt/Mix)', 'Acrylic acid, p.a., 99%', 'CHEMBL1213529', 'DTXSID0039229', 'ZINC895281', 'NSC-4765', 'STR00040', 'Tox21_112372', '7023AF', 'LMFA01030193', 'MFCD00004367', 'NSC106034', 'NSC106035', 'NSC106036', 'NSC106037', 'NSC112122', 'NSC112123', 'NSC114472', 'NSC165257', 'NSC226569', 'STL281870', 'AKOS000118799', 'DB02579', 'MCULE-9352227082', 'NSC-106034', 'NSC-106035', 'NSC-106036', 'NSC-106037', 'NSC-112122', 'NSC-112123', 'NSC-114472', 'NSC-165257', 'NSC-226569', 'CAS-79-10-7', 'BP-30259', 'A0141', 'FT-0621875', 'FT-0660730', '1312-EP2270113A1', '1312-EP2272935A1', '1312-EP2275469A1', '1312-EP2287940A1', '1312-EP2289965A1', '1312-EP2298753A1', '1312-EP2305033A1', '1312-EP2308857A1', '1312-EP2308861A1', '1312-EP2308865A1', '1312-EP2308882A1', '1312-EP2374784A1', '1312-EP2374785A1', '1313-EP2272537A2', '1313-EP2289894A2', '1313-EP2298743A1', '1313-EP2308833A2', '1313-EP2311840A1', '1313-EP2371811A2', '1313-EP2374787A1', '2186-EP2277879A1', '2186-EP2305636A1', '2186-EP2311821A1', '2186-EP2374787A1', '3854-EP2270113A1', '3854-EP2272849A1', '3854-EP2272935A1', '3854-EP2275414A1', '3854-EP2275418A1', '3854-EP2277565A2', '3854-EP2277566A2', '3854-EP2277567A1', '3854-EP2277568A2', '3854-EP2277569A2', '3854-EP2277570A2', '3854-EP2289879A1', '3854-EP2292280A1', '3854-EP2298753A1', '3854-EP2302003A1', '3854-EP2305219A1', '3854-EP2305683A1', '3854-EP2305684A1', '3854-EP2308857A1', '3854-EP2308858A1', '3854-EP2309584A1', '3854-EP2311816A1', '3854-EP2311817A1', '3854-EP2311831A1', '3854-EP2311839A1', '3854-EP2311840A1', '3854-EP2314589A1', '3854-EP2315303A1', '3854-EP2316837A1', '3854-EP2371803A1', '3854-EP2372017A1', '3854-EP2374538A1', '3854-EP2374786A1', '3854-EP2377842A1', '3854-EP2377843A1', '3854-EP2377847A1', 'C00511', 'C19501', 'D03392', 'D03393', 'D03394', 'D03395', 'D03396', 'D03397', 'Acrylic Acid contains 200ppm MEHQ as inhibitor', 'Acrylic acid, inhibited [UN2218]  [Corrosive]', 'A830860', 'Q324628', 'Z57127944', 'F0001-2070', '2-Propenoic acid, block polymer with sulfonated ethenylbenzene', 'Acrylic acid, anhydrous, contains 200 ppm MEHQ as inhibitor, 99%', 'Acrylic acid, SAJ first grade, >=97.0%, contains 190-210 ppm MEHQ as stabilizer', 'Block copolymer of sulfonated polystyrene and polyacrylic acid (MW 250,000)', '55927-87-2']
54;2-oxopropanoic acid;-1;C3H4O3;88.06;CC(=O)C(=O)O;1060;326.9;-71.8;;;;-9.4;-8.8;-7.2;-6.9;2.5;;;;"['Pyruvic acid', '2-Oxopropanoic acid', '127-17-3', '2-Oxopropionic acid', 'acetylformic acid', 'Pyroracemic acid', 'alpha-ketopropionic acid', '2-Ketopropionic acid', 'Propanoic acid, 2-oxo-', '2-Oxopropanoate', '2-oxo-propionic acid', '2-Oxopropansaeure', '2-Oxopropionsaeure', 'alpha-Oxopropionsaeure', 'Pyruvic acid (natural)', 'acide pyruvique', 'a-Ketopropionic acid', 'Propanoic acid, oxo-', 'CH3COCOOH', 'pyruvicacid', 'alpha-keto propionic acid', 'NSC 179', '2-KETOPROPANOIC ACID', 'UNII-8558G7RUTR', 'AI3-11220', '.alpha.-Ketopropionic acid', '8558G7RUTR', 'CHEBI:32816', 'MFCD00002585', 'DSSTox_CID_1650', '2-oxo-Propanoic acid', 'DSSTox_RID_76263', 'DSSTox_GSID_21650', 'Brenztraubensaeure', 'CAS-127-17-3', 'FEMA No. 2970', 'Pyruvic acid (8CI)', 'EINECS 204-824-3', 'BRN 0506211', 'Acetylformate', 'Pyroracemate', 'Acid pyruvate', 'a-Ketopropionate', '2-Oxopropionate', 'acetyl formic acid', 'alpha-Ketopropionate', ""2-Oxopropanoic'acid"", 'nchembio867-comp8', '2-oxo propanoic acid', 'Pyruvic acid, 95%', 'Pyruvic acid, 98%', '4b5s', 'ACMC-1BZZI', 'bmse000112', 'Pyruvic-2-[13C] acid', 'P-9250', 'NCIOpen2_000039', '4-03-00-01505 (Beilstein Handbook Reference)', 'Pyruvic acid, p.a., 98%', 'Pyruvic acid, >=97%, FG', 'GTPL4809', 'NSC179', 'CHEMBL1162144', 'DTXSID2021650', 'BDBM19473', 'Pyruvic acid, natural, >=80%', 'AMY6082', 'NSC-179', 'Propanoic acid, 2-oxo- (9CI)', 'HY-Y0781', 'ZINC1532517', 'Tox21_202096', 'Tox21_303284', 'BBL027390', 'LMFA01060077', 's3143', 'AKOS000118803', 'CS-W020190', 'DB00119', 'LS41153', 'MCULE-8587144313', 'NCGC00165990-01', 'NCGC00165990-02', 'NCGC00257000-01', 'NCGC00259645-01', 'I940', 'Pyruvic acid, technical, >=95.0% (T)', 'FT-0612738', 'P0579', 'C00022', '11058-EP2269610A2', '11058-EP2270011A1', '11058-EP2275401A1', '11058-EP2277848A1', '11058-EP2277867A2', '11058-EP2280001A1', '11058-EP2280003A2', '11058-EP2281563A1', '11058-EP2284160A1', '11058-EP2284174A1', '11058-EP2289510A1', '11058-EP2289890A1', '11058-EP2292234A1', '11058-EP2298735A1', '11058-EP2301544A1', '11058-EP2301931A1', '11058-EP2301937A1', '11058-EP2301940A1', '11058-EP2305257A1', '11058-EP2305646A1', '11058-EP2308847A1', '11058-EP2308851A1', '11058-EP2311809A1', '11058-EP2311842A2', '11058-EP2314593A1', '11058-EP2316457A1', '11058-EP2316458A1', '11058-EP2316459A1', '11058-EP2316825A1', '11058-EP2316826A1', '11058-EP2316827A1', '11058-EP2316828A1', '11058-EP2371802A1', '11058-EP2374895A1', 'Q213580', 'B3CFF0AD-2F35-484C-B062-4AC88A1B2830', 'F2191-0254', 'Z1741977082', 'UNII-8558G7RUTR component LCTONWCANYUPML-UHFFFAOYSA-N', 'Pyruvic acid, United States Pharmacopeia (USP) Reference Standard']"