Number;IUPAC_name;Charge;Molecular Formula;Molecular Weight [g/mol];Isomeric SMILES;Pubchem CID;GasPhaseAcidity_B2PLYP//DLPNO-CCSD(T) [kcal/mol];GSolv_Ion_Water [kcal/mol];GSolv_Ion_DMSO [kcal/mol];GSolv_Ion_Acetonitrile [kcal/mol];GSolv_Ion_MeOH [kcal/mol];Gsolv_Neutral_Water_exp [kcal/mol];Gsolv_Neutral_DMSO_TZVPD-Fine [kcal/mol];Gsolv_Neutral_Acetonitrile_TZVPD-Fine [kcal/mol];Gsolv_Neutral_MeOH_TZVPD-Fine [kcal/mol];pka_water;pka_DMSO;pka_Acetonitrile;pka_MeOH;Synonyms
80;hydrogen peroxide;-1;H2O2;34.015;OO;784;374.2;-105.8;;;;-8.6;-11.2;-7.9;-8.7;11.7;;;;"['hydrogen peroxide', '7722-84-1', 'perhydrol', 'oxydol', 'Hydrogen dioxide', 'hydroperoxide', 'Superoxol', 'Interox', 'Inhibine', 'Peroxaan', 'Peroxide', 'Albone', 'Hioxyl', 'Kastone', 'Albone 35', 'Albone DS', 'Dihydrogen dioxide', 'T-Stuff', 'Lensept', 'Elawox', 'Perone', 'Hydrogen peroxide (H2O2)', 'Albone 50', 'Albone 70', 'Perone 50', 'Albone 35CG', 'Albone 50CG', 'Albone 70CG', 'H2O2', 'Peroxan', 'Hydrogen peroxide, 30%', 'Hydrogen peroxide solution', 'Hydrogen dioxide solution', 'Hydrogen peroxide, 90%', 'Perone 30', 'Perone 35', 'Hydrogen peroxide, solution', 'Waterstofperoxyde', 'Hydrogen peroxide, 3%', 'Wasserstoffperoxid', 'Caswell No. 486AAA', ""Peroxyde d'hydrogene"", 'Perossido di idrogeno', 'Asepticper', 'Baquashock', 'Crystacide', 'Peroxclean', 'CCRIS 1060', 'Dentasept', 'HSDB 547', 'Hybrite', 'Metrokur', 'Mirasept', 'Oxigenal', 'Oxyfull', 'Oxysept', 'Pegasyl', 'Hipox', 'Select Bleach', 'Hydrogen peroxide, solution, 3%', 'Hydrogen peroxide solution (DOT)', 'Xtra White', 'Hydrogen peroxide (conc > 52%)', 'Oxysept I', 'Hydrogen peroxide solutions', 'Hydrogen peroxide, solution, 30%', 'Hydrogen peroxide, solution, 35%', 'Lensan A', 'Odosat D', 'UNII-BBX060AN9V', 'Adeka Super EL', 'Crestal Whitestrips', 'UN2014', 'UN2015', 'UN2984', 'EPA Pesticide Chemical Code 000595', 'Anti-Keim 50', 'Hydrogen peroxide, 8% to 20%', 'Hydrogen peroxide, 20% to 60%', 'Hydrogen peroxide (> 52% conc.)', 'Hydrogen peroxide [USP]', 'MFCD00011333', 'UN 2015 (>52%)', 'BBX060AN9V', 'UN 2984 (8%-20%)', 'UN 2014 (20%-52%)', 'CHEBI:16240', 'NSC-19892', 'Hydrogen peroxide solutions (over 8% but not over 60%)', 'Hydrogen peroxide solutions (over 60% but not over 70%)', 'Hydrogen peroxide (USP)', 'PEO', 'dioxidane', 'Puresept', 'hydrogenperoxide', 'Waterstofperoxyde [Dutch]', 'Accel Concentrate', 'Wasserstoffperoxid [German]', 'Astri-UC', 'HTP [peroxide]', 'High Test Peroxide', 'CIX', ""Peroxyde d'hydrogene [French]"", 'Teat dip HP 5', 'Perossido di idrogeno [Italian]', 'Pre milk HP 0.5', 'Pre milk HP 1.0', 'Hydrogen peroxide 35%', 'EINECS 231-765-0', 'NSC 19892', 'Pre milk HP 0.5 10', 'Whitespeed', 'Eskata', 'Magic Bleaching', 'Clarigel Gold', 'Lase Peroxide', 'Quasar Brite', 'Opalescence Xtra', 'Whiteness HP', 'Deslime LP', 'Hydrogen peroxide (conc >52%)', 'hydrogen per oxide', 'dihydrogen peroxide', 'dihydrogen(peroxide)', 'Oxyfull (TN)', 'HOOH', 'hydrogen hydroperoxide', 'ACMC-20akqy', 'Nite White Excel 2', 'Oxydol (JP17)', 'Hydrogen peroxide 50%', 'HYDROGEN-PEROXIDE', 'Hydrogen peroxide aqueous', 'Hydrogen Peroxide, 50%', 'Hydrogen peroxide (8CI)', 'MolMap_000025', 'bis(hydridooxygen)(O--O)', 'EC 231-765-0', '30 %Hydrogen peroxide(aq)', 'CHEMBL71595', 'Hydrogen peroxide 32 wt. %', 'OXTERIL? 350 SPRAY', '[OH(OH)]', 'DTXSID2020715', 'Hydrogen peroxide, 6% in water', 'Hydrogen peroxide (H2O2) (9CI)', 'NSC19892', 'WLN: H2 O2 90%', 'Hydrogen Peroxide [Topical Solution]', 'AKOS015856794', 'DB11091', 'QTL1_000041', 'Hydrogen peroxide, aqueous solutions with >40% but not >60% hydrogen peroxide (stabilized as necessary) [UN2014] [Oxidizer]', 'Hydrogen peroxide, aqueous solutions with not <20% but not >40% hydrogen peroxide (stabilized as necessary) [UN2014] [Oxidizer]', 'Hydrogen peroxide, aqueous solutions with not <8% but <20% hydrogen peroxide (stabilized as necessary) [UN2984] [Oxidizer]', 'Hydrogen peroxide, stabilized or hydrogen peroxide aqueous solutions, stabilized with >60% hydrogen peroxide [UN2015] [Oxidizer]', 'FT-0627133', 'H1222', 'C00027', 'D00008', 'Hydrogen peroxide solution, 3%, for microbiology', 'Hydrogen peroxide solution, for ultratrace analysis', 'Q171877', 'Q1088474', 'Hydrogen peroxide solution, extra pure, 30.0-32.0%', 'Hydrogen peroxide solution, purum p.a., >=30% (RT)', 'Hydrogen peroxide solution, purum p.a., >=35% (RT)', 'Hydrogen peroxide solution, >=30%, for trace analysis', 'Hydrogen peroxide solution, SAJ first grade, >=30.0%', 'Hydrogen peroxide solution, tested according to Ph.Eur.', 'Hydrogen peroxide solution, 50 wt. % in H2O, stabilized', 'Hydrogen peroxide solution, JIS special grade, 30.0-35.5%', 'Hydrogen peroxide solution, 30 % (w/w) in H2O, contains stabilizer', 'Hydrogen peroxide solution, contains inhibitor, 35 wt. % in H2O', 'Hydrogen peroxide solution, p.a., ACS reagent, reag. ISO, 30.0%', 'Hydrogen peroxide 30%, meets the analytical specifications of Ph. Eur., stabilized', 'Hydrogen Peroxide Solution, 30% (w/w), puriss. p.a., reag. ISO, reag. Ph. Eur.', 'Hydrogen peroxide solution, AR, contains sodium pyrophosphate as stabilizer, >=30 % (w/v)', 'Hydrogen peroxide solution, contains ~200 ppm acetanilide as stabilizer, 3 wt. % in H2O', 'Hydrogen peroxide solution, contains inhibitor, 30 wt. % in H2O, ACS reagent', 'Hydrogen peroxide solution, LR, contains sodium pyrophosphate as stabilizer, >=30 % (w/v)', 'Hydrogen peroxide solution, LR, contains sodium pyrophosphate as stabilizer, >=50 % (w/v)', 'Hydrogen peroxide solution, meets analytical specification of Ph. Nord., 34.5-36.5%', 'Hydrogen peroxide solution, puriss. p.a., ACS reagent, not stabilized, >=30% (RT)', 'Hydrogen peroxide solution, semiconductor grade MOS PURANAL(TM) (Honeywell 17937), >=30%', 'Hydrogen peroxide solution, semiconductor grade PURANAL(TM) (Honeywell 17948), >=30%', 'Hydrogen peroxide solution, semiconductor grade ULSI PURANAL(TM) (Honeywell 17024), >=30%', 'Hydrogen peroxide solution, semiconductor grade VLSI PURANAL(TM) (Honeywell 17606), >=30%', 'Hydrogen peroxide solution, contains inhibitor, 30 wt. % in H2O, meets USP testing specifications', 'Hydrogen peroxide solution, contains potassium stannate as inhibitor, 30-32 wt. % in water, semiconductor grade, 99.999% trace metals basis', 'Hydrogen peroxide, aqueous solutions with >40% but not >60% hydrogen peroxide (stabilized as necessary)', 'Hydrogen peroxide, aqueous solutions with >40% but not >60% hydrogen peroxide (stabilized as necessary) [UN2014]  [Oxidizer]', 'Hydrogen peroxide, aqueous solutions with not <20% but not >40% hydrogen peroxide (stabilized as necessary)', 'Hydrogen peroxide, aqueous solutions with not <20% but not >40% hydrogen peroxide (stabilized as necessary) [UN2014]  [Oxidizer]', 'Hydrogen peroxide, aqueous solutions with not <8% but <20% hydrogen peroxide (stabilized as necessary)', 'Hydrogen peroxide, aqueous solutions with not <8% but <20% hydrogen peroxide (stabilized as necessary) [UN2984]  [Oxidizer]', 'Hydrogen peroxide, stabilized or hydrogen peroxide aqueous solutions, stabilized with >60% hydrogen peroxide', 'Hydrogen peroxide, stabilized or hydrogen peroxide aqueous solutions, stabilized with >60% hydrogen peroxide [UN2015]  [Oxidizer]']"
81;removed_later_Hydroperoxylradical;-1;test;test;test;test;362.1;-101.6;;;;-7;-9.5;-6.9;-7.4;4.7;;;;test
82;4-methoxyaniline;1;C7H9NO;123.15;COC1=CC=C(C=C1)N;7732;208.3;-67.5;;;-71.6;-7.6;-10.1;-9.6;-9.5;5.3;;;6.9;['p-Anisidine', '4-Methoxyaniline', '104-94-9', '4-Anisidine', '4-Methoxybenzenamine', '4-Aminoanisole', 'Benzenamine, 4-methoxy-', 'para-Anisidine', 'p-Methoxyaniline', 'p-Aminoanisole', '4-Methoxybenzeneamine', 'Anisidine', 'p-Anisylamine', 'p-Methoxyphenylamine', '1-Amino-4-methoxybenzene', 'Anisole, p-amino-', 'p-Dianisidine', '4-Methoxy-1-aminobenzene', 'Aniline, p-methoxy-', '4-Methoxy-phenylamine', '4-METHOXY-ANILINE', 'NSC 7921', '4-methoxy-benzenamine', 'UNII-575917SNR4', '(4-methoxyphenyl)-amine', 'DTXSID7024532', 'CHEBI:82388', 'MFCD00007864', '575917SNR4', 'DSSTox_CID_4532', 'DSSTox_RID_77446', 'DSSTox_GSID_24532', 'Aniline, 4-methoxy-', 'CAS-104-94-9', 'CCRIS 917', '4-methoxyphenylamine', 'HSDB 1603', 'EINECS 203-254-2', 'paraanisidine', '4methoxyaniline', 'para anisidine', 'rho-anisidine', 'p-anisidin', 'beta -anisidine', 'AI3-02392', 'p-Amino-Anisole', '4-Amino-anisole', 'p-methoxy aniline', 'p-methoxy-aniline', '4-methoxy aniline', 'para-methoxyaniline', '4methoxy-phenylamine', 'para-methoxy aniline', 'p-methoxyphenyl amine', 'p-Methoxy phenylamine', '4-(methyloxy)aniline', '1820684-56-7', '(4-methoxyphenyl)amine', '4-methoxy phenyl amine', '4-methoxy-phenyl amine', 'ACMC-1CDRJ', '4-amino-1-methoxybenzene', 'p-Anisidine, >=99%', 'SCHEMBL5097', 'WLN: ZR DO1', 'BIDD:GT0008', 'CHEMBL295652', 'p-Anisidine-[d3] hydrochloride', 'NSC7921', 'HMS1757G11', 'ACT00170', 'BCP26755', 'NSC-7921', 'STR00220', 'ZINC4556034', 'Tox21_202437', 'Tox21_303039', 'AC-565', 'STK258849', 'AKOS000100571', 'AM84313', 'MCULE-4031615314', '1-Methoxy-4-amino-benzen (p-anisidin)', 'NCGC00091136-01', 'NCGC00091136-03', 'NCGC00091136-04', 'NCGC00257099-01', 'NCGC00259986-01', '1-Methoxy-4-amino-benzene / p-anisidine', 'BP-12035', 'A0487', 'A0802', 'CS-0015840', 'FT-0650502', 'FT-0693135', 'C19326', '53520-EP2305651A1', '53520-EP2308854A1', '75927-EP2295053A1', '75927-EP2308880A1', '142394-EP2280001A1', '142394-EP2281563A1', '142394-EP2292593A2', 'A937237', 'AC-907/25014180', 'Q-200438', 'Q3333299', 'Z56938150', 'F2190-0441', 'UNII-6DE9L863GO component BHAAPTBBJKJZER-UHFFFAOYSA-N']
83;4-nitroaniline;1;C6H6N2O2;138.12;C1=CC(=CC=C1N)[N+](=O)[O-];7475;191.9;-80.4;;;-86.1;-9.9;-17.9;-14.9;-14.8;1;;;1.6;['4-NITROANILINE', 'p-Nitroaniline', '100-01-6', 'p-Nitraniline', 'p-Aminonitrobenzene', '4-Nitrobenzenamine', '4-Nitraniline', 'Benzenamine, 4-nitro-', 'p-Nitrophenylamine', '1-Amino-4-nitrobenzene', 'Aniline, p-nitro-', 'Developer P', 'Aniline, 4-nitro-', 'para-Nitroaniline', 'Azoamine Red ZH', 'Nitrazol CF extra', 'Devol Red GG', 'Fast Red P Base', 'Fast Red P Salt', 'Fast Red Base GG', 'Fast Red GG Base', 'Fast Red GG Salt', 'Fast Red MP Base', 'Fast Red Salt GG', 'Diazo Fast Red GG', 'Red 2G Base', 'Fast Red 2G Base', 'Fast Red 2G Salt', 'Fast Red Base 2J', 'Fast Red Salt 2J', 'Azofix Red GG Salt', 'C.I. Developer 17', 'Naphtoelan Red GG Base', 'Azoic Diazo Component 37', 'Paranitroaniline', 'p-Nitroanilina', 'Shinnippon Fast Red GG Base', 'Rcra waste number P077', 'C.I. Azoic Diazo Component 37', 'p-nitro aniline', 'UNII-1MRQ0QZG7G', 'NCI-C60786', '4-NITRO-PHENYLAMINE', 'NSC 9797', 'C.I. 37035', 'PNA', '4-NITRO-ANILINE', 'PARA NITRO ANILINE', 'MFCD00007858', '1MRQ0QZG7G', 'DTXSID8020961', 'CHEBI:17064', 'NCGC00091426-02', '4-Nitrobenzeneamine', '4-Aminonitrobenzene', 'CI Developer 17', 'para-Aminonitrobenzene', 'p-Nitroanilina [Polish]', 'PNA (VAN)', '4-nitrophenylamine', 'Azoamine Red 2H', 'CI Azoic Diazo Component 37', 'CCRIS 1184', 'HSDB 1156', 'Benzen-2,3,5,6-d4-amine-d2, 4-nitro-', 'EINECS 202-810-1', 'RCRA waste no. P077', 'CI 37035', 'p-nitro-aniline', 'para-nitroanilin', 'AI3-08926', '4-nitro aniline', 'p-Nitroaniline, solid', '(4-nitrophenyl)-amine', '4-Nitroaniline, 99%', '4-Nitrobenzeneamine anion', 'DSSTox_CID_961', 'WLN: ZR DNW', 'EC 202-810-1', '4-Nitroaniline, crystalline', '4-Nitroaniline, >=99%', 'ACMC-1B5R8', 'DSSTox_RID_75889', 'NCIOpen2_002864', 'DSSTox_GSID_20961', 'SCHEMBL16451', 'AURORA KA-7786', 'MLS002454441', 'CHEMBL14282', '4-Nitro-3-chloro benzoic acid', 'SCHEMBL10163408', 'NSC9797', 'AKOS 92446', 'HMS3039B17', 'LABOTEST-BB LTBB000466', '4-Nitroaniline, analytical standard', 'NSC-9797', 'STR00350', 'ZINC3860644', 'Tox21_400031', 'STK301653', 'AKOS000119131', 'AKOS025293369', 'AS00442', 'LS10622', 'MCULE-4310869465', 'p-Nitroaniline [UN1661]  [Poison]', 'NCGC00091426-01', 'NCGC00091426-03', 'CAS-100-01-6', 'I577', 'SMR001372024', 'FT-0650287', 'N0119', 'AZ0001-0085', '00N016', 'C02126', '78632-EP2270004A1', '78632-EP2305808A1', '78632-EP2308847A1', '78633-EP2272822A1', '78633-EP2272825A2', '78633-EP2308847A1', '78633-EP2380872A1', 'AE-641/01643038', 'Q419842', 'Q-200503', 'F2190-0433', 'Z275127984']
84;morpholine;1;C4H9NO;87.12;C1COCCN1;8083;214.5;-65.2;;-75.3;;-7.2;-5.7;-6.1;-7.9;8.4;;16.6;;"['MORPHOLINE', '110-91-8', '1-Oxa-4-azacyclohexane', 'Tetrahydro-1,4-oxazine', 'Diethylene oximide', 'Diethylenimide oxide', 'Diethyleneimide oxide', 'Drewamine', 'Diethylene imidoxide', 'Tetrahydro-p-oxazine', 'Tetrahydro-2H-1,4-oxazine', 'p-Isoxazine, tetrahydro-', 'Tetrahydro-1,4-isoxazine', 'morpholin', 'BASF 238', 'Caswell No. 584', 'Morpholine, 4-soya alkyl derivs.', '2H-1,4-Oxazine, tetrahydro-', '4H-1,4-Oxazine, tetrahydro-', 'NSC 9376', 'UNII-8B2ZCK305O', 'MFCD00005972', '138048-80-3', 'C4H9NO', 'Tetrahydro-4H-1-4-oxazine', '8B2ZCK305O', 'CHEBI:34856', 'N-Vinylbenzylmorpholine-divinylbenzene Copolymer', '61791-40-0', 'DSSTox_CID_5688', 'DSSTox_RID_77880', 'DSSTox_GSID_25688', 'CAS-110-91-8', 'CCRIS 2482', 'HSDB 102', 'MORPHOLINE,REAG', 'Tetrahydro-p-isoxazine', 'MORPHOLINE, PRACT', 'EINECS 203-815-1', 'UN2054', 'EPA Pesticide Chemical Code 054701', 'BRN 0102549', 'morphline', 'morpho line', 'morpholine-', 'AI3-01231', '6LR', 'EINECS 263-172-8', '4H-1, tetrahydro-', 'Morpholine [UN2054] [Flammable liquid]', 'Morpholine Reagent Grade', 'Morpholine on Rasta Resin', 'Tetrahydro-1,4-oxazine;', 'WLN: T6M DOTJ', 'EC 203-815-1', 'NCIMech_000154', 'Tetrahydro-1, 4-isoxazine', 'NCIOpen2_007748', 'Oprea1_317540', 'Tetryhydro-2H-1,4-oxazine', 'Tetrahydro-4H-1,4-Oxazine', '4-27-00-00015 (Beilstein Handbook Reference)', 'BIDD:ER0297', 'ACMC-20997q', 'Morpholine, analytical standard', 'CHEMBL276518', 'DTXSID2025688', 'NSC9376', 'AMY22834', 'BCP24054', 'NSC-9376', 'STR00194', 'ZINC1699948', 'Tox21_202450', 'Tox21_303240', 'STL182843', 'AKOS000118829', 'Morpholine, ACS reagent, >=99.0%', 'Morpholine, ReagentPlus(R), >=99%', 'DB13669', 'MCULE-4684386765', 'NA 2054', 'UN 2054', 'NCGC00249227-01', 'NCGC00256942-01', 'NCGC00259999-01', 'Morpholine, p.a., ACS reagent, 99.0%', 'DB-030063', 'Morpholine [UN2054]  [Flammable liquid]', 'FT-0628993', 'M0465', 'Morpholine purified by distillation from glass', '1031-EP2269992A1', '1031-EP2269993A1', '1031-EP2270004A1', '1031-EP2270006A1', '1031-EP2270010A1', '1031-EP2270113A1', '1031-EP2272509A1', '1031-EP2272517A1', '1031-EP2272813A2', '1031-EP2272817A1', '1031-EP2272827A1', '1031-EP2272832A1', '1031-EP2272834A1', '1031-EP2272835A1', '1031-EP2272839A1', '1031-EP2272840A1', '1031-EP2272841A1', '1031-EP2272844A1', '1031-EP2272848A1', '1031-EP2272849A1', '1031-EP2272935A1', '1031-EP2272972A1', '1031-EP2272973A1', '1031-EP2274983A1', '1031-EP2275102A1', '1031-EP2275395A2', '1031-EP2275401A1', '1031-EP2275403A1', '1031-EP2275404A1', '1031-EP2275410A1', '1031-EP2275411A2', '1031-EP2275413A1', '1031-EP2275422A1', '1031-EP2277848A1', '1031-EP2277858A1', '1031-EP2277872A1', '1031-EP2277877A1', '1031-EP2277880A1', '1031-EP2277881A1', '1031-EP2280001A1', '1031-EP2280004A1', '1031-EP2280005A1', '1031-EP2280006A1', '1031-EP2280008A2', '1031-EP2280009A1', '1031-EP2280020A1', '1031-EP2280021A1', '1031-EP2281563A1', '1031-EP2281813A1', '1031-EP2281815A1', '1031-EP2281818A1', '1031-EP2281821A1', '1031-EP2281822A1', '1031-EP2284149A1', '1031-EP2284157A1', '1031-EP2284159A1', '1031-EP2284160A1', '1031-EP2284178A2', '1031-EP2284179A2', '1031-EP2286811A1', '1031-EP2287147A2', '1031-EP2287156A1', '1031-EP2287157A1', '1031-EP2287159A1', '1031-EP2287167A1', '1031-EP2289868A1', '1031-EP2289871A1', '1031-EP2289884A1', '1031-EP2289887A2', '1031-EP2289888A2', '1031-EP2289894A2', '1031-EP2292228A1', '1031-EP2292586A2', '1031-EP2292592A1', '1031-EP2292593A2', '1031-EP2292606A1', '1031-EP2292610A1', '1031-EP2292611A1', '1031-EP2292615A1', '1031-EP2295402A2', '1031-EP2295409A1', '1031-EP2295411A1', '1031-EP2295415A1', '1031-EP2295426A1', '1031-EP2295427A1', '1031-EP2295429A1', '1031-EP2295432A1', '1031-EP2295433A2', '1031-EP2295439A1', '1031-EP2298312A1', '1031-EP2298731A1', '1031-EP2298735A1', '1031-EP2298743A1', '1031-EP2298761A1', '1031-EP2298763A1', '1031-EP2298766A1', '1031-EP2298767A1', '1031-EP2298772A1', '1031-EP2298776A1', '1031-EP2298778A1', '1031-EP2301534A1', '1031-EP2301536A1', '1031-EP2301538A1', '1031-EP2301627A1', '1031-EP2301928A1', '1031-EP2301929A1', '1031-EP2301933A1', '1031-EP2301935A1', '1031-EP2301937A1', '1031-EP2302132A1', '1031-EP2305219A1', '1031-EP2305250A1', '1031-EP2305629A1', '1031-EP2305633A1', '1031-EP2305648A1', '1031-EP2305651A1', '1031-EP2305652A2', '1031-EP2305672A1', '1031-EP2305674A1', '1031-EP2305675A1', '1031-EP2305677A1', '1031-EP2305679A1', '1031-EP2305682A1', '1031-EP2305687A1', '1031-EP2305695A2', '1031-EP2305696A2', '1031-EP2305697A2', '1031-EP2305698A2', '1031-EP2308479A2', '1031-EP2308509A1', '1031-EP2308510A1', '1031-EP2308562A2', '1031-EP2308812A2', '1031-EP2308833A2', '1031-EP2308838A1', '1031-EP2308839A1', '1031-EP2308840A1', '1031-EP2308849A1', '1031-EP2308850A1', '1031-EP2308854A1', '1031-EP2308857A1', '1031-EP2308861A1', '1031-EP2308867A2', '1031-EP2308868A1', '1031-EP2308870A2', '1031-EP2308879A1', '1031-EP2308880A1', '1031-EP2309584A1', '1031-EP2311451A1', '1031-EP2311455A1', '1031-EP2311464A1', '1031-EP2311796A1', '1031-EP2311797A1', '1031-EP2311798A1', '1031-EP2311799A1', '1031-EP2311802A1', '1031-EP2311803A1', '1031-EP2311808A1', '1031-EP2311810A1', '1031-EP2311815A1', '1031-EP2311825A1', '1031-EP2311827A1', '1031-EP2311829A1', '1031-EP2311842A2', '1031-EP2314295A1', '1031-EP2314574A1', '1031-EP2314575A1', '1031-EP2314586A1', '1031-EP2314587A1', '1031-EP2314588A1', '1031-EP2314590A1', '1031-EP2316450A1', '1031-EP2316459A1', '1031-EP2316470A2', '1031-EP2316831A1', '1031-EP2316832A1', '1031-EP2316833A1', '1031-EP2316974A1', '1031-EP2371811A2', '1031-EP2371831A1', '1031-EP2372804A1', '1031-EP2374454A1', '1031-EP2378585A1', '1031-EP2380872A1', '1031-EP2380874A2', '59619-EP2275422A1', '59619-EP2292589A1', '59619-EP2295436A1', '59619-EP2295439A1', '59619-EP2298076A1', '59619-EP2298077A1', '59619-EP2298305A1', '59619-EP2298762A2', '59619-EP2301353A1', '59619-EP2305031A1', '59619-EP2305034A1', '59619-EP2305035A1', '59619-EP2308852A1', '59619-EP2371823A1', 'Morpholine, purified by redistillation, >=99.5%', 'Q410243', 'J-522715', '1-Oxa-4-azacyclohexane ;  Tetrahydro-2H-1,4-oxazine', 'F2190-0339', 'Morpholine, polymer-bound, 200-400 mesh, extent of labeling: 2.75-3.25 mmol/g loading, 1 % cross-linked', 'ScavengePore(TM) phenethyl morpholine, macroporous, 40-70 mesh, extent of labeling: 0.7-1.5 mmol/g loading', 'StratoSpheres(TM) PL-MPH resin, 50-100 mesh, extent of labeling: 3.0-4.0 mmol/g loading, 1 % cross-linked']"