Number;IUPAC_name;Charge;Molecular Formula;Molecular Weight [g/mol];Isomeric SMILES;Pubchem CID;GasPhaseAcidity_B2PLYP//DLPNO-CCSD(T) [kcal/mol];GSolv_Ion_Water [kcal/mol];GSolv_Ion_DMSO [kcal/mol];GSolv_Ion_Acetonitrile [kcal/mol];GSolv_Ion_MeOH [kcal/mol];Gsolv_Neutral_Water_exp [kcal/mol];Gsolv_Neutral_DMSO_TZVPD-Fine [kcal/mol];Gsolv_Neutral_Acetonitrile_TZVPD-Fine [kcal/mol];Gsolv_Neutral_MeOH_TZVPD-Fine [kcal/mol];pka_water;pka_DMSO;pka_Acetonitrile;pka_MeOH;Synonyms
194;ethanethioamide;-1;C2H5NS;75.14;CC(=S)N;2723949;339.9;;-66.7;;;;-13.1;-10.8;-10.5;;18.5;;;"['THIOACETAMIDE', 'Ethanethioamide', '62-55-5', 'Acetothioamide', 'Thiacetamide', 'Acetamide, thio-', 'Thioacetimidic acid', 'Acetimidic acid, thio-', 'USAF CB-21', 'USAF EK-1719', 'RCRA waste number U218', 'TAA', 'Acetic acid, thiono-, amide', 'methylthioamide', 'thioacetoamide', 'Thioactamide', 'NSC 2120', 'acetic acid thioamide', 'UNII-075T165X8M', 'MFCD00008070', 'CHEBI:32497', '075T165X8M', 'Thiacetamid', 'CCRIS 584', 'Ethanimidothioic acid', 'HSDB 1318', 'EINECS 200-541-4', 'RCRA waste no. U218', 'C2H5NS', 'thioacteamide', 'thioacetamide ts', 'AI3-17220', 'CH3CSNH2', 'DSSTox_CID_1340', 'bmse000781', 'Thioacetamide, ACS reagent', 'EC 200-541-4', 'WLN: ZY1&US', 'DSSTox_RID_76094', 'DSSTox_GSID_21340', 'Ethanethioamide;Acetothioamide', 'CHEMBL38737', 'ACMC-209n54', 'DTXSID9021340', 'YUKQRDCYNOVPGJ-UHFFFAOYSA-', 'NSC2120', 'Acetamide, thio- (VAN) (8CI)', 'BCP30336', 'NSC-2120', 'STR00411', 'Thioacetamide, reagent grade, 98%', 'Tox21_301295', 'STL199139', 'ZINC40454337', 'AKOS000119931', 'CS-W018499', 'MCULE-4635097605', 'CAS-62-55-5', 'NCGC00257539-01', 'Thioacetamide, ACS reagent, >=99.0%', 'BP-10926', 'Thioacetamide, p.a., ACS reagent, 99%', 'DB-000689', 'FT-0631278', 'T0187', 'AZ0001-0070', 'Thioacetamide, Vetec(TM) reagent grade, 98%', 'C19302', 'D70870', '10791-EP2292227A2', '10791-EP2301536A1', '10791-EP2301538A1', '10791-EP2308856A1', '10791-EP2311455A1', '10791-EP2316452A1', '67512-EP2292227A2', '67512-EP2292621A1', '67512-EP2308839A1', 'A833844', 'Q416253', 'J-520440', 'F0001-1649', 'Thioacetamide, ACS reagent, for the precipitation (of heavy metals), >=99.0%']"
195;2-fluoroacetic acid;-1;C2H3FO2;78.04;C(C(=O)O)F;5237;331.7;;;;-68.8;;-11.0;-9.0;-9.0;;;;8;['FLUOROACETIC ACID', '2-Fluoroacetic acid', '144-49-0', 'Gifblaar poison', 'Cymonic acid', 'Monofluoroacetic acid', 'Acetic acid, 2-fluoro-', 'Monofluoressigsaure', 'Fluoroethanoic acid', 'Acetic acid, fluoro-', 'Acide-monofluoracetique', 'Monofluorazijnzuur', 'Acido monofluoroacetio', 'UNII-AP1JV9U41M', 'HFA', 'Monofluoroacetate', 'UN 2642', 'AP1JV9U41M', 'CHEBI:30775', 'Caswell No. 462', 'Monofluorazijnzuur [Dutch]', 'Monofluoressigsaure [German]', 'Acido monofluoracetio', 'Acido monofluoracetio [Italian]', 'Acide-monofluoracetique [French]', 'Acido monofluoroacetio [Italian]', 'HSDB 2082', 'EINECS 205-631-7', 'UN2642', 'EPA Pesticide Chemical Code 075001', 'BRN 1739053', 'AI3-28547', 'fluoro-acetic acid', 'FAH', 'MFA (Salt/Mix)', 'CH2FCOOH', 'Spectrum_001872', 'SpecPlus_000915', 'Fluoroacetic acid, 95%', 'DSSTox_CID_21981', 'DSSTox_RID_79894', 'NCIOpen2_000661', 'DSSTox_GSID_41981', 'KBioSS_002392', '4-02-00-00446 (Beilstein Handbook Reference)', 'DivK1c_007011', 'CHEMBL509273', 'DTXSID0041981', 'KBio1_001955', 'KBio2_002387', 'KBio2_004955', 'KBio2_007523', 'ACT03307', 'ZINC4658594', 'Tox21_302429', 'MFCD00039529', 'AKOS006230216', 'Fluoroacetic acid [UN2642]  [Poison]', 'NCGC00255974-01', 'CAS-144-49-0', 'X4631', 'C06108', '91558-EP2292622A1', '91558-EP2305668A1', '144F490', 'Q420215', 'J-509508']
196;formamide;-1;CH3NO;45.041;C(=O)N;713;355.9;;-73.3;;;;-10.4;-8.6;-9.7;;23.5;;;"['formamide', '75-12-7', 'Methanamide', 'carbamaldehyde', 'Formimidic acid', 'Formic acid, amide', 'formamid', 'Methanoic acid, amide', 'NSC 748', 'Amid kyseliny mravenci', 'Amid kyseliny mravenci [Czech]', 'Formic amide', 'Formamide, dimer', 'UNII-4781T907ZS', 'AI3-15357', 'HCONH2', 'MFCD00007941', 'Methanamide;Formimidic acid', 'hydroxidonitridocarbonate(.1-)', 'DTXSID8025337', 'CHEBI:16397', '4781T907ZS', 'DSSTox_CID_5337', 'DSSTox_RID_77755', 'DSSTox_GSID_25337', 'CAS-75-12-7', '28704-51-0', 'HSDB 88', 'CCRIS 6240', 'EINECS 200-842-0', 'Formamide, puriss. p.a., ACS reagent, >=99.5% (GC/T)', 'Methanamid', 'imidoformic acid', 'Ameisensaeureamid', 'N-formyl amine', 'amino-formaldehyde', 'Imino-methylalkohol', 'Formamide solution, NMR reference standard, 90% in DMSO-d6 (99.9 atom % D), NMR tube size 5 mm x 8 in.', 'MB8', 'Amide C1', 'Formamide, ACS reagent', 'NH2CHO', 'WLN: ZVH', 'ACMC-1BIX7', 'bmse000267', 'EC 200-842-0', 'Formamide, >=99.0%', 'Formamide, >=99.5%', 'Formamide, p.a., 99.5%', 'CHEMBL266160', 'GTPL4739', 'NSC748', 'Formamide, reagent grade, 98%', 'CHEBI:48431', 'AMY3583', 'NSC-748', 'Formamide, Spectrophotometric Grade', 'HY-Y0842', 'Tox21_201942', 'Tox21_302824', 'STL197469', 'Formamide, ACS reagent, >=99.5%', 'Formamide, BioXtra, >=99% (GC)', 'AKOS009031608', 'Residual Solvent Class 2 - Formamide', 'MCULE-4202420620', 'Formamide, SAJ first grade, >=98.5%', 'NCGC00091516-01', 'NCGC00091516-02', 'NCGC00256321-01', 'NCGC00259491-01', 'Formamide, p.a., ACS reagent, 99.5%', 'Formamide, JIS special grade, >=98.5%', 'Formamide, Vetec(TM) reagent grade, 98%', 'DB-055937', 'CS-0015817', 'F0045', 'Formamide, spectrophotometric grade, >=99%', 'FT-0631311', 'FT-0637321', 'Formamide, ReagentPlus(R), >=99.0% (GC)', 'C00488', 'A838330', 'Q283917', 'J-521386', 'Q27110288', 'F0001-1892', 'Formamide, BioUltra, for molecular biology, >=99.5% (T)', 'Formamide, for molecular biology, >=99.5% (GC), liquid', 'Formamide, >=99.5% (GC), BioReagent, for molecular biology', 'Formamide solution, NMR reference standard, 45% in DMSO-d6 (99.9 atom % D), NMR tube size 3 mm x 8 in.', 'Formamide solution, NMR reference standard, 45% in DMSO-d6 (99.9 atom % D), NMR tube size 5 mm x 8 in.', 'Formamide solution, NMR reference standard, 90% in DMSO-d6 (99.9 atom % D), NMR tube size 10 mm x 8 in.', 'Formamide solution, NMR reference standard, 90% in DMSO-d6 (99.9 atom % D), NMR tube size 3 mm x 8 in.']"
197;2-hydroxyacetic acid;-1;C2H4O3;76.05;C(C(=O)O)O;757;329.1;;;-51.4;-66.5;;-12.3;-9.7;-10.3;;;19.3;8.7;"['glycolic acid', '2-Hydroxyacetic acid', 'hydroxyacetic acid', '79-14-1', 'Glycollic acid', 'Hydroxyethanoic acid', 'Acetic acid, hydroxy-', 'Caswell No. 470', 'alpha-Hydroxyacetic acid', 'Kyselina glykolova', 'Acetic acid, 2-hydroxy-', 'Kyselina glykolova [Czech]', 'Kyselina hydroxyoctova', 'HOCH2COOH', '2-Hydroxyethanoic acid', 'Kyselina hydroxyoctova [Czech]', 'Glycocide', 'EPA Pesticide Chemical Code 000101', 'GlyPure', 'HSDB 5227', 'NSC 166', 'AI3-15362', 'UNII-0WT12SX38S', 'MFCD00004312', 'GlyPure 70', 'BRN 1209322', 'GLYCOLLATE', 'Acetic acid, hydroxy-, homopolymer', '.alpha.-Hydroxyacetic acid', 'Acetic acid, 2-hydroxy-, homopolymer', '0WT12SX38S', 'NSC166', 'CHEBI:17497', 'NSC-166', 'Polyglycollic acid', '26124-68-5', 'GOA', 'glycolicacid', 'Dexon (polyester)', 'C2H4O3', 'Poly(L-glycolic acid)', 'Glypure 70 homopolymer', 'Glycolic acid homopolymer', 'EINECS 201-180-5', 'Hydroxyacetic acid homopolymer', 'Hydroxyethanoate', 'a-Hydroxyacetate', 'CCRIS 9474', 'hydroxy-acetic acid', 'alpha-Hydroxyacetate', 'a-Hydroxyacetic acid', 'Glycolic Acid 70%', 'Glycolic acid solution', '2-hydroxy acetic acid', '2-hydroxy-acetic acid', 'Glycolic acid, 99%', 'ACMC-209pgf', 'omega-Hydroxy fatty acid', '2-hydroxyl ethanoic acid', 'Glycolic acid, polyesters', 'HO-CH2-COOH', 'DSSTox_CID_5363', 'bmse000245', 'WLN: QV1Q', 'EC 201-180-5', 'DSSTox_RID_77763', 'Glycolic acid (7CI,8CI)', 'DSSTox_GSID_25363', '4-03-00-00571 (Beilstein Handbook Reference)', 'Glycolic acid, p.a., 98%', 'Acetic acid, hydroxy- (9CI)', 'CHEMBL252557', 'DTXSID0025363', 'Glycolic Acid, Crystal, Reagent', 'Glycolic acid solution, 56-58%', 'BCP28762', 'Glycolic acid, >=97.0% (T)', 'STR00936', 'ZINC4658557', 'Tox21_301298', 'BBL020025', 's6272', 'STL197955', 'AKOS000118921', 'Glycolic acid, ReagentPlus(R), 99%', 'CS-W016683', 'DB03085', 'Glycolic acid solution, puriss., 70%', 'HY-W015967', 'MCULE-9792551388', 'CAS-79-14-1', 'NCGC00160612-01', 'NCGC00160612-02', 'NCGC00257533-01', 'Glycolic acid, 66-70% aqueous solution', 'K398', 'Glycolic acid solution, CP, 70% in H2O', 'FT-0612572', 'FT-0669047', 'G0110', 'G0196', 'Glycolic acid 100 microg/mL in Acetonitrile', 'Glycolic acid, SAJ special grade, >=98.0%', 'C00160', 'C03547', 'D78078', 'Glycolic acid, Vetec(TM) reagent grade, 98%', 'HYDROXYACETIC ACID; HYDROXYETHANOIC ACID', '11046-EP2269610A2', '11046-EP2269988A2', '11046-EP2270002A1', '11046-EP2270003A1', '11046-EP2270008A1', '11046-EP2270011A1', '11046-EP2275401A1', '11046-EP2275413A1', '11046-EP2277848A1', '11046-EP2277867A2', '11046-EP2280003A2', '11046-EP2281563A1', '11046-EP2284160A1', '11046-EP2284178A2', '11046-EP2284179A2', '11046-EP2287156A1', '11046-EP2289510A1', '11046-EP2289879A1', '11046-EP2289890A1', '11046-EP2292617A1', '11046-EP2295424A1', '11046-EP2298735A1', '11046-EP2298755A1', '11046-EP2301931A1', '11046-EP2301937A1', '11046-EP2301940A1', '11046-EP2305257A1', '11046-EP2305646A1', '11046-EP2305651A1', '11046-EP2308851A1', '11046-EP2308854A1', '11046-EP2311807A1', '11046-EP2311842A2', '11046-EP2314588A1', '11046-EP2314593A1', '11046-EP2316457A1', '11046-EP2316458A1', '11046-EP2316459A1', '11046-EP2316825A1', '11046-EP2316826A1', '11046-EP2316827A1', '11046-EP2316828A1', '11046-EP2372017A1', '11046-EP2374786A1', '11046-EP2374787A1', '11046-EP2374895A1', '11046-EP2380871A1', '47926-EP2301544A1', '47926-EP2308851A1', '47926-EP2311810A1', '49125-EP2272848A1', '49125-EP2281824A1', '49125-EP2292613A1', '49125-EP2295408A1', '49125-EP2295426A1', '49125-EP2295427A1', '49125-EP2295430A2', '49125-EP2295431A2', '49125-EP2305254A1', '49125-EP2305679A1', '49125-EP2311823A1', 'Glycolic acid, BioXtra, >=98.0% (titration)', 'Glycolic acid solution, technical, ~55% in H2O', 'Q409373', 'J-509661', 'F2191-0224', 'Glycolic acid solution, high purity, 70 wt. % in H2O', 'Hydroxyacetic acid; Hydroxyethanoic acid;  Glycollic acid', 'Z1259155884', '287EB351-FF9F-4A67-B4B9-D626406C9B13', 'Glycolic acid solution, technical grade, 70 wt. % in H2O', 'Glycolic acid, certified reference material, TraceCERT(R)', 'Glycolic acid, anhydrous, free-flowing, Redi-Dri(TM), ReagentPlus(R), 99%', 'Glycolic Acid, Pharmaceutical Secondary Standard; Certified Reference Material', 'O7Z']"
198;1H-imidazole;-1;C3H4N2;68.08;C1=CN=CN1;795;344.0;;-69.0;;;;-11.3;-9.7;-11.2;;18.6;;;"['imidazole', '1H-Imidazole', '288-32-4', 'Glyoxaline', 'Imidazol', 'Iminazole', 'Miazole', '1,3-Diazole', 'Glyoxalin', 'Imutex', '1,3-Diaza-2,4-cyclopentadiene', 'Pyrro(b)monazole', 'USAF EK-4733', 'Pyrro[b]monazole', ""Formamidine, N,N'-vinylene-"", 'Glioksal [Polish]', 'Glioksal', '1H-imidazol', 'IMD', ""Methanimidamide, N,N'-1,2-ethenediyl-"", 'CCRIS 3345', 'AI3-24703', 'UNII-7GBN705NH1', 'NSC 60522', 'BRN 0103853', '1H-Imidazole, dimer', ""N,N'-vinyleneformamidine"", 'CHEMBL540', '7GBN705NH1', 'DTXSID2029616', 'CHEBI:16069', ""N,N'-1,2-ethenediylmethanimidamide"", 'MFCD00005183', 'DSSTox_CID_9616', 'DSSTox_RID_78788', 'DSSTox_GSID_29616', '227760-40-9', 'CAS-288-32-4', 'Imidazole (8CI)', 'NSC51860', 'Imidazole, puriss. p.a., >=99.5% (GC)', 'EINECS 206-019-2', 'NSC 51860', 'Immidazole', 'imidazole-', '1-H-imidazole', 'Imidazole, Reagent', '{Pyrro[b]monazole}', '1,4-cyclopentadiene', 'Imidazole, ACS grade', 'ACMC-1CPAG', '1H-Imidazole (9CI)', ""Formamidine,N'-vinylene-"", 'bmse000096', 'bmse000790', 'WLN: T5M CNJ', 'EC 206-019-2', 'NCIStruc1_001975', 'NCIStruc2_000693', 'Imidazole, LR, >=99%', '5-23-04-00191 (Beilstein Handbook Reference)', 'MLS001055465', 'BDBM7882', 'Imidazole-buffered saline (5X)', 'Imidazole-[2-13C,15N2]', 'HSDB 8449', '1,3-Diaza-2,4-cyclopentadiene-', 'Imidazole, ReagentPlus(R), 99%', 'ZINC901039', 'Imidazole, for synthesis, 99.5%', 'BCP26547', 'HY-D0837', 'NSC60522', ""Methanimidamide,N'-1,2-ethenediyl-"", 'Tox21_201504', 'Tox21_303345', 'BBL009685', 'NSC-60522', 's6006', 'STK362967', 'AKOS000120177', 'AM82000', 'CS-5135', 'DB03366', 'MCULE-1410806694', 'Imidazole, BioUltra, >=99.5% (GC)', 'NCGC00090984-01', 'NCGC00090984-02', 'NCGC00257344-01', 'NCGC00259055-01', '2,4-Diazonia-2,4-cyclopentadiene-1-ide', 'BP-11451', 'Him', 'SMR000057825', '1,3-Diaza-2,4-cyclopentadiene;Glyoxaline', 'Imidazole, SAJ special grade, >=99.0%', 'Imidazole, Vetec(TM) reagent grade, 98%', 'DB-002018', 'Imidazole, 0.5M buffer solution, pH 6.0', 'Imidazole, 0.5M buffer solution, pH 7.0', 'Imidazole, 0.5M buffer solution, pH 7.5', 'FT-0627179', 'FT-0670295', 'I0001', 'I0014', 'I0288', 'I0290', 'Imidazole, >=99% (titration), crystalline', 'Imidazole Zone Refined (number of passes:30)', 'Imidazole, ACS reagent, >=99% (titration)', '2519-EP0930075A1', '2519-EP1441224A2', '2519-EP2269977A2', '2519-EP2269978A2', '2519-EP2269985A2', '2519-EP2269990A1', '2519-EP2269991A2', '2519-EP2269992A1', '2519-EP2270002A1', '2519-EP2270006A1', '2519-EP2270008A1', '2519-EP2270010A1', '2519-EP2270011A1', '2519-EP2270014A1', '2519-EP2270015A1', '2519-EP2270113A1', '2519-EP2270505A1', '2519-EP2272509A1', '2519-EP2272510A1', '2519-EP2272516A2', '2519-EP2272517A1', '2519-EP2272537A2', '2519-EP2272813A2', '2519-EP2272817A1', '2519-EP2272825A2', '2519-EP2272827A1', '2519-EP2272828A1', '2519-EP2272832A1', '2519-EP2272838A1', '2519-EP2272839A1', '2519-EP2272840A1', '2519-EP2272841A1', '2519-EP2272848A1', '2519-EP2272849A1', '2519-EP2272935A1', '2519-EP2272972A1', '2519-EP2272973A1', '2519-EP2274983A1', '2519-EP2275102A1', '2519-EP2275395A2', '2519-EP2275401A1', '2519-EP2275404A1', '2519-EP2275409A1', '2519-EP2275411A2', '2519-EP2275412A1', '2519-EP2275413A1', '2519-EP2275414A1', '2519-EP2276085A1', '2519-EP2277848A1', '2519-EP2277858A1', '2519-EP2277872A1', '2519-EP2277880A1', '2519-EP2280000A1', '2519-EP2280005A1', '2519-EP2280009A1', '2519-EP2281563A1', '2519-EP2281813A1', '2519-EP2281815A1', '2519-EP2281818A1', '2519-EP2281819A1', '2519-EP2281824A1', '2519-EP2284149A1', '2519-EP2284150A2', '2519-EP2284151A2', '2519-EP2284152A2', '2519-EP2284153A2', '2519-EP2284155A2', '2519-EP2284156A2', '2519-EP2284157A1', '2519-EP2284164A2', '2519-EP2284169A1', '2519-EP2284920A1', '2519-EP2286812A1', '2519-EP2286915A2', '2519-EP2287140A2', '2519-EP2287148A2', '2519-EP2287150A2', '2519-EP2287161A1', '2519-EP2287162A1', '2519-EP2287165A2', '2519-EP2287166A2', '2519-EP2287167A1', '2519-EP2289868A1', '2519-EP2289871A1', '2519-EP2289884A1', '2519-EP2289890A1', '2519-EP2289894A2', '2519-EP2292586A2', '2519-EP2292590A2', '2519-EP2292592A1', '2519-EP2292593A2', '2519-EP2292596A2', '2519-EP2292597A1', '2519-EP2292604A2', '2519-EP2292606A1', '2519-EP2292610A1', '2519-EP2292611A1', '2519-EP2292612A2', '2519-EP2292613A1', '2519-EP2292617A1', '2519-EP2292619A1', '2519-EP2292620A2', '2519-EP2292621A1', '2519-EP2292630A1', '2519-EP2295401A2', '2519-EP2295402A2', '2519-EP2295406A1', '2519-EP2295414A1', '2519-EP2295415A1', '2519-EP2295419A2', '2519-EP2295421A1', '2519-EP2295426A1', '2519-EP2295427A1', '2519-EP2295429A1', '2519-EP2295432A1', '2519-EP2295433A2', '2519-EP2295434A2', '2519-EP2295550A2', '2519-EP2298731A1', '2519-EP2298732A1', '2519-EP2298742A1', '2519-EP2298743A1', '2519-EP2298744A2', '2519-EP2298755A1', '2519-EP2298763A1', '2519-EP2298766A1', '2519-EP2298767A1', '2519-EP2298770A1', '2519-EP2298772A1', '2519-EP2298774A1', '2519-EP2298776A1', '2519-EP2298778A1', '2519-EP2298783A1', '2519-EP2298828A1', '2519-EP2299509A1', '2519-EP2300438A1', '2519-EP2301534A1', '2519-EP2301536A1', '2519-EP2301538A1', '2519-EP2301912A2', '2519-EP2301913A1', '2519-EP2301914A1', '2519-EP2301916A2', '2519-EP2301918A1', '2519-EP2301921A1', '2519-EP2301926A1', '2519-EP2301929A1', '2519-EP2301930A1', '2519-EP2301931A1', '2519-EP2301932A1', '2519-EP2301933A1', '2519-EP2301934A1', '2519-EP2301935A1', '2519-EP2301937A1', '2519-EP2301940A1', '2519-EP2301983A1', '2519-EP2302003A1', '2519-EP2302015A1', '2519-EP2305219A1', '2519-EP2305250A1', '2519-EP2305637A2', '2519-EP2305640A2', '2519-EP2305643A1', '2519-EP2305648A1', '2519-EP2305651A1', '2519-EP2305652A2', '2519-EP2305657A2', '2519-EP2305658A1', '2519-EP2305659A1', '2519-EP2305668A1', '2519-EP2305674A1', '2519-EP2305676A1', '2519-EP2305682A1', '2519-EP2305689A1', '2519-EP2305695A2', '2519-EP2305696A2', '2519-EP2305697A2', '2519-EP2305698A2', '2519-EP2305769A2', '2519-EP2305808A1', '2519-EP2308510A1', '2519-EP2308562A2', '2519-EP2308812A2', '2519-EP2308832A1', '2519-EP2308833A2', '2519-EP2308839A1', '2519-EP2308840A1', '2519-EP2308848A1', '2519-EP2308852A1', '2519-EP2308854A1', '2519-EP2308855A1', '2519-EP2308861A1', '2519-EP2308863A1', '2519-EP2308867A2', '2519-EP2308868A1', '2519-EP2308869A1', '2519-EP2308870A2', '2519-EP2308872A1', '2519-EP2308873A1', '2519-EP2308874A1', '2519-EP2308877A1', '2519-EP2308879A1', '2519-EP2308880A1', '2519-EP2308883A1', '2519-EP2309584A1', '2519-EP2311451A1', '2519-EP2311455A1', '2519-EP2311464A1', '2519-EP2311796A1', '2519-EP2311797A1', '2519-EP2311798A1', '2519-EP2311799A1', '2519-EP2311802A1', '2519-EP2311803A1', '2519-EP2311815A1', '2519-EP2311818A1', '2519-EP2311820A1', '2519-EP2311823A1', '2519-EP2311825A1', '2519-EP2311826A2', '2519-EP2311827A1', '2519-EP2311830A1', '2519-EP2311841A1', '2519-EP2311842A2', '2519-EP2314295A1', '2519-EP2314558A1', '2519-EP2314574A1', '2519-EP2314575A1', '2519-EP2314582A1', '2519-EP2314583A1', '2519-EP2314587A1', '2519-EP2315303A1', '2519-EP2315502A1', '2519-EP2316450A1', '2519-EP2316452A1', '2519-EP2316459A1', '2519-EP2316470A2', '2519-EP2316829A1', '2519-EP2316831A1', '2519-EP2316832A1', '2519-EP2316833A1', '2519-EP2316836A1', '2519-EP2316905A1', '2519-EP2316906A2', '2519-EP2371810A1', '2519-EP2371811A2', '2519-EP2371812A1', '2519-EP2371831A1', '2519-EP2372017A1', '2519-EP2372804A1', '2519-EP2377847A1', '2519-EP2377848A1', '2519-EP2378585A1', '2519-EP2380874A2', 'C01589', 'P17516', '59390-EP2270011A1', '59390-EP2272846A1', '59390-EP2305808A1', '59390-EP2308852A1', '59390-EP2371806A1', '59390-EP2371812A1', '142240-EP2270010A1', '142240-EP2292593A2', 'Imidazole buffer Solution, BioUltra, 1 M in H2O', 'Q328692', 'J-200340', 'Imidazole, for molecular biology, >=99% (titration)', 'F2190-0638', 'Z1245636370', 'Imidazole, BioUltra, for molecular biology, >=99.5% (GC)', 'Imidazole, European Pharmacopoeia (EP) Reference Standard', '4286D518-643C-4C69-BCE7-519D073F4992', 'Imidazole, pharmaceutical impurity standard, >=95.0% (HPLC)', 'Imidazole, United States Pharmacopeia (USP) Reference Standard', 'Imidazole;1,3-diazole; glyoxaline; 1,3-diazacyclopenta-2,4-diene', 'Imidazole, anhydrous, free-flowing, Redi-Dri(TM), ACS reagent, >=99%', 'Imidazole, Pharmaceutical Secondary Standard; Certified Reference Material', 'Ondansetron impurity E, European Pharmacopoeia (EP) Reference Standard']"