Number;IUPAC_name;Charge;Molecular Formula;Molecular Weight [g/mol];Isomeric SMILES;Pubchem CID;GasPhaseAcidity_B2PLYP//DLPNO-CCSD(T) [kcal/mol];GSolv_Ion_Water [kcal/mol];GSolv_Ion_DMSO [kcal/mol];GSolv_Ion_Acetonitrile [kcal/mol];GSolv_Ion_MeOH [kcal/mol];Gsolv_Neutral_Water_exp [kcal/mol];Gsolv_Neutral_DMSO_TZVPD-Fine [kcal/mol];Gsolv_Neutral_Acetonitrile_TZVPD-Fine [kcal/mol];Gsolv_Neutral_MeOH_TZVPD-Fine [kcal/mol];pka_water;pka_DMSO;pka_Acetonitrile;pka_MeOH;Synonyms
124;4-methylpyridine;1;C6H7N;93.13;CC1=CC=NC=C1;7963;219.1;;;;-57.5;;-6.1;-6.4;-7.3;;;;6.1;['4-METHYLPYRIDINE', '4-Picoline', '108-89-4', 'Pyridine, 4-methyl-', 'p-Picoline', 'gamma-Picoline', 'p-Methylpyridine', '4-methyl-pyridine', '4-methyl pyridine', 'Ba 35846', 'UNII-TJD6V9SSO7', '.gamma.-Picoline', 'NSC 18252', '4-Mepy', '.gamma.-Methylpyridine', 'TJD6V9SSO7', 'CHEBI:32547', '4-methylpyridinium', 'DSSTox_CID_1892', 'DSSTox_RID_76389', 'DSSTox_GSID_21892', 'gamma-Methylpyridine', 'CAS-108-89-4', 'CCRIS 1723', 'HSDB 5386', 'EINECS 203-626-4', 'gamma-picolin', 'AI3-24111', '4-Pyridylmethyl', '4-pi-coline', 'para-Methylpyridine', '4-Picoline (8CI)', 'Methyl, 4-pyridinyl-', 'ACMC-1BQOX', '4-Pyridylmethyl chloride', '4-Methylpyridine, 98%', '4-Methylpyridine, 99%', 'NCIOpen2_007706', 'WLN: T6NJ D1', 'CHEMBL15544', 'DTXSID4021892', 'ZINC967366', 'NSC18252', 'Tox21_201400', 'Tox21_302961', 'BBL011459', 'MFCD00006440', 'NSC-18252', 'STL146571', 'AKOS000119191', 'AM81280', 'MCULE-2244521363', 'RTE3_000025', 'NCGC00249042-01', 'NCGC00256613-01', 'NCGC00258951-01', '4-Picoline, analytical reference material', '4-METHYL-PYRIDINE (GAMMA-PICOLINE)', '4-Picoline, technical, >=98.0% (GC)', 'DB-031403', 'p-Picoline [UN2313]  [Flammable liquid]', 'A2139', 'FT-0626621', 'P0417', 'X8110', 'PK04_181300', 'A801938', 'Q-200501', 'Q2189778', 'F0001-0182']
125;4-phenylpyridine;1;C11H9N;155.2;C1=CC=C(C=C1)C2=CC=NC=C2;13651;;;;;;;-9.8;-10.0;-10.7;;;;5.8;"['4-PHENYLPYRIDINE', '939-23-1', 'Pyridine, 4-phenyl-', 'p-Phenylpyridine', '4-Phenyl-pyridine', 'UNII-452KD9YCG7', 'MFCD00006420', ""4-Aza-1,1'-biphenyl"", '452KD9YCG7', 'CHEMBL109074', '4-Azabiphenyl', 'EINECS 213-357-4', 'NSC 70375', 'NSC 77935', 'BRN 0110490', 'phenyl-pyridine', '4-Phenylpyridin', '4-Pyridylbenzene', '4-phenyl pyridine', '4-Phenylpyridine, 97%', 'ACMC-209ro4', '5-20-07-00549 (Beilstein Handbook Reference)', 'MLS002206281', 'SCHEMBL124353', 'DTXSID5022140', 'SCHEMBL19003057', 'CHEBI:173662', 'HMS2268O18', 'ZINC967333', 'ACT10661', 'AMY32754', 'NSC70375', 'NSC77935', 'BDBM50121955', 'NSC-70375', 'NSC-77935', 'AKOS005255288', 'AC-5099', 'CS-W018018', 'MCULE-7703688065', 'NCGC00247406-01', '52642-16-7', 'DS-14724', 'H226', 'SMR000112292', 'SY021647', 'DB-031355', 'FT-0619412', 'P0162', '39P231', 'W-100225', 'Q27258800', '5SH']"