Number;IUPAC_name;Charge;Molecular Formula;Molecular Weight [g/mol];Isomeric SMILES;Pubchem CID;GasPhaseAcidity_B2PLYP//DLPNO-CCSD(T) [kcal/mol];GSolv_Ion_Water [kcal/mol];GSolv_Ion_DMSO [kcal/mol];GSolv_Ion_Acetonitrile [kcal/mol];GSolv_Ion_MeOH [kcal/mol];Gsolv_Neutral_Water_exp [kcal/mol];Gsolv_Neutral_DMSO_TZVPD-Fine [kcal/mol];Gsolv_Neutral_Acetonitrile_TZVPD-Fine [kcal/mol];Gsolv_Neutral_MeOH_TZVPD-Fine [kcal/mol];pka_water;pka_DMSO;pka_Acetonitrile;pka_MeOH;Synonyms
43;methanol;1;CH4O;32.042;CO;887;173.1;-90.2;;-95.5;;-5.1;-5.5;-4.3;-5.2;-2.1;;2.4;;"['methanol', 'methyl alcohol', 'wood alcohol', 'carbinol', '67-56-1', 'Wood spirit', 'Wood naphtha', 'Methylol', 'Methyl hydroxide', 'Pyroxylic spirit', 'Colonial Spirit', 'Columbian Spirit', 'Columbian spirits', 'Monohydroxymethane', 'Methylalkohol', 'Alcool methylique', 'MeOH', 'Methyl hydrate', 'Alcohol, methyl', 'CH3OH', 'Metanolo', 'Alcool metilico', ""Bieleski's solution"", 'Colonial spirits', 'Metylowy alkohol', 'Pyroxylic spirits', 'Hydroxymethane', 'Freers Elm Arrester', 'Surflo-B17', 'Rcra waste number U154', 'Wilbur-Ellis Smut-Guard', 'Metanol [Spanish]', 'Metanolo [Italian]', 'Coat-B1400', 'Eureka Products, Criosine', 'Metanol', 'Caswell No. 552', 'Methylalkohol [German]', 'Spirit of wood', 'Alcool metilico [Italian]', 'Metylowy alkohol [Polish]', 'Alcool methylique [French]', 'X-Cide 402 Industrial Bactericide', 'HSDB 93', 'Ideal Concentrated Wood Preservative', 'Methyl alcohol [NF]', 'Eureka Products Criosine Disinfectant', 'NSC 85232', 'UN1230', 'CCRIS 2301', 'Pyro alcohol', 'CH4O', 'AI3-00409', 'MetOH', 'RCRA waste no. U154', 'UNII-Y4S76JWI15', 'EPA Pesticide Chemical Code 053801', 'Methanol-water mixture', 'CHEBI:17790', 'Y4S76JWI15', 'Methanol, anhydrous', 'MFCD00004595', 'Methyl alcohol (NF)', 'NCGC00091172-01', 'Aqualine&trade; Solvent', 'Methanol-[17O]', 'DSSTox_CID_1731', 'Aqualine&trade; Titrant 5', 'DSSTox_RID_76297', 'DSSTox_GSID_21731', 'Methanol, for HPLC, >=99.9%', 'Methanol, ACS reagent, >=99.8%', 'Methanol, or methyl alcohol [UN1230]  [Flammable liquid, Poison]', 'CAS-67-56-1', 'Pyroligneous spirit', '170082-17-4', 'MOH', 'EINECS 200-659-6', 'Methylalcohol', 'methly alcohol', 'methanol-', 'Wood', 'Methanol cluster', 'Methanol NF', 'Nat. Methanol', 'Methanol LC-MS', 'Methanol (I)', 'Methyl alcohol (I)', 'Methanol, for HPLC', 'Methanol (Recovered)', 'Methanol, ACS Grade', ""Solutions, Bieleski's"", 'Methanol, HPLC grade', 'Methanol, LCMS grade', 'Columbian     spirits', 'Hydroxymethylidyne radical', ""3'-Hydroxystanozolol-D3"", 'Methanol (Peptide Grade)', 'Methanol, Histology Grade', 'ACMC-1C6GT', 'bmse000294', 'Epitope ID:116865', 'EC 200-659-6', 'Aqualine&trade; Solvent CM', 'Methanol Reagent Grade ACS', 'Methanol, or methyl alcohol', 'Methanol, LR, >=99%', 'Methanol, SAJ special grade', 'Methanol, analytical standard', 'WLN: Q1', 'Methanol HPLC Gradient Grade', 'Methanol, Environmental Grade', 'Aqualine&trade; Electrolyte A', 'CHEMBL14688', 'Methanol, anhydrous, 99.8%', 'Methanol, p.a., 99.8%', 'Methanol, p.a., 99.9%', 'Aqualine&trade; Electrolyte AG', 'Aqualine&trade; Electrolyte CG', 'DTXSID2021731', 'Methanol, AR, >=99.5%', 'Methanol, NMR reference standard', 'Methanol, ultrapure, HPLC Grade', 'Methanol, 99.8%, ACS reagent', 'Methanol, anhydrous, >=99.5%', 'Methanol, low water for titration', 'Methanol GC, for residue analysis', 'Eriochrome&trade; Black T Solution', 'Methanol, Absolute - Acetone free', 'Methanol, HPLC gradient, 99.9%', 'Methanol, or methyl alcohol [UN1230] [Flammable liquid, Poison]', 'NSC85232', 'Methanol, for HPLC, >=99.8%', 'Methanol, PRA grade, >=99.9%', 'Tox21_111094', 'Tox21_202523', '8292AF', 'CB0177', 'Methanol, HPLC Plus, >=99.9%', 'NSC-85232', 'AKOS000269045', 'Methanol, purification grade, 99.8%', 'MCULE-1370061678', 'UN 1230', 'Methanol, UHPLC, for mass spectrometry', 'Methanol solution, technical grade, 95%', 'Methanol, >=99.8%, for chromatography', 'Methanol, SAJ first grade, >=99.5%', 'NCGC00260072-01', 'Methanol, JIS special grade, >=99.8%', 'Methanol, Laboratory Reagent, >=99.6%', 'Methanol, UV HPLC spectroscopic, 99.9%', 'Methanol, anhydrous, ZerO2(TM), 99.8%', 'Methanol, spectrophotometric grade, >=99%', 'FT-0623465', 'FT-0628297', 'FT-0628299', 'FT-0700908', 'FT-0700959', 'M0097', 'M0628', 'Methanol, ultrapure, Spectrophotometric Grade', 'C00132', 'D02309', 'Methanol, for HPLC, gradient grade, 99.93%', 'Methanol, suitable for determination of dioxins', 'Q14982', 'Methanol, for HPLC, gradient grade, >=99.9%', 'Methanol, glass distilled HRGC/HPLC trace grade', 'Methanol, low benzene, ACS reagent, >=99.8%', 'Methanol, ACS spectrophotometric grade, >=99.9%', 'Methanol HPLC, UV-IR min. 99.9% isocratic grade', 'Methanol, BioReagent, suitable for protein sequencing', 'Methanol, for HPLC, gradient grade, >=99.8% (GC)', 'Methanol, HPLC Plus, >=99.9%, poly-coated bottles', 'Q27115113', 'Methanol solution, (Methanol:Acetonitrile 1:1 (v/v))', 'Methanol solution, contains 0.50 % (v/v) triethylamine', 'Methanol, Vetec(TM) reagent grade, anhydrous, >=99.8%', 'Methanol solution, (Methanol:Dichloromethane 1:1 (v/v))', 'Methanol, for residue analysis, suitable for 5000 per JIS', 'Moisture in methanol, 325 mg/kg, NIST(R) SRM(R) 8510', 'Moisture in methanol, 93 mg/kg, NIST(R) SRM(R) 8509', 'UNII-N4G9GAT76C component OKKJLVBELUTLKV-UHFFFAOYSA-N', 'Methanol solution, (Methanol:Dimethyl sulfoxide 1:1 (v/v))', 'Methanol solution, contains 0.1 % (v/v) trifluoroacetic acid', 'Methanol solution, for protein sequence analysis, ~50% in H2O', 'Methanol with 0.1% trifluoroacetic acid, tested for UHPLC-MS', 'Methanol, >=99.8%, suitable for absorption spectrum analysis', 'Methanol, semiconductor grade PURANAL(TM) (Honeywell 17824)', 'Methanol, p.a., ACS reagent, reag. ISO, reag. Ph. Eur., 99.9%', 'Methanol, puriss. p.a., absolute, ACS reagent, >=99.8% (GC)', 'Methanol, semiconductor grade VLSI PURANAL(TM) (Honeywell 17744)', 'Methanol, suitable for protein sequencing, BioReagent, >=99.93%', 'Methyl alcohol, United States Pharmacopeia (USP) Reference Standard', 'Methanol, Pharmaceutical Secondary Standard; Certified Reference Material', 'Methanol, puriss., meets analytical specification of Ph Eur, >=99.7% (GC)', 'Methanol, suitable for 1000 per JIS, >=99.8%, for residue analysis', 'Methanol, suitable for 300 per JIS, >=99.8%, for residue analysis', ""(5beta,17beta)-17-Hydroxy-17-(methyl-d3)-2'H-androst-2-eno[3,2-c]pyrazol-5'(1'H)-one"", 'Methanol solution, contains 0.1 % (v/v) trifluoroacetic acid, 5 % (v/v) water, for HPLC', 'Methanol solution, contains 0.10 % (v/v) trifluoroacetic acid, 10 % (v/v) water', 'Methanol solution, for HPLC, contains 10 % (v/v) water, 0.1 % (v/v) trifluoroacetic acid', 'Methanol, for HPLC, gradient grade, suitable as ACS-grade LC reagent, >=99.9%', 'Methanol, puriss. p.a., ACS reagent, reag. ISO, reag. Ph. Eur., >=99.8% (GC)', 'Residual Solvent Class 2 - Methanol, United States Pharmacopeia (USP) Reference Standard', 'JandaJel(TM)-OH, 100-200 mesh, extent of labeling: 1.0 mmol/g OH loading, 2 % cross-linked', 'JandaJel(TM)-OH, 200-400 mesh, extent of labeling: 1.0 mmol/g OH loading, 2 % cross-linked', 'JandaJel(TM)-OH, 50-100 mesh, extent of labeling: 1.0 mmol/g OH loading, 2 % cross-linked', 'Methanol solution, contains 0.10 % (v/v) formic acid, UHPLC, for mass spectrometry, >=99.5%', 'Methanol solution, NMR reference standard, 4% in methanol-d4 (99.8 atom % D), NMR tube size 3 mm x 8 in.', 'Methanol solution, NMR reference standard, 4% in methanol-d4 (99.8 atom % D), NMR tube size 5 mm x 8 in.']"
45;methoxymethane;1;C2H6O;46.07;COC;8254;182.5;-76.9;;;;-1.8;-1.8;-2.3;-2.5;-2.5;;;;"['DIMETHYL ETHER', 'Methoxymethane', 'Methyl ether', 'Dimethyl oxide', 'Oxybismethane', 'Methane, oxybis-', '115-10-6', 'Methyl oxide', 'Wood ether', 'Dymel A', 'Ether, dimethyl', 'Ether, methyl', 'Demeon D', 'dimethylether', ""Methane, 1,1'-oxybis-"", 'methylether', '(CH3)2O', 'UNII-AM13FS69BX', 'AM13FS69BX', 'CH3-O-CH3', 'CHEBI:28887', '157621-61-9', 'HSDB 354', 'Dimethyl ether, puriss., >=99.9% (GC)', 'EINECS 204-065-8', 'UN1033', 'monomethylether', 'Dimehtylether', 'Dymel', 'monomethyl ether', 'oxybis(methane)', 'mono methyl ether', 'Methyloxoniomethanide', 'Dimethyl ether 99%', 'OMe2', '(Methoxymethylidyne)radical', 'Dimethyl ether, >=99%', 'EC 204-065-8', 'Dimethyl ether, >=99.9%', 'CHEMBL119178', 'DTXSID8026937', 'MFCD00008494', 'AKOS015915866', 'Dimethyl ether, puriss., >=99.8%', 'UN 1033', '158-EP2274983A1', '158-EP2289965A1', '158-EP2295433A2', '158-EP2298761A1', '158-EP2301934A1', '158-EP2305646A1', '158-EP2305687A1', '158-EP2308858A1', '158-EP2308861A1', '158-EP2311816A1', '158-EP2311817A1', '397-EP2272834A1', '397-EP2272839A1', '397-EP2272840A1', '397-EP2272972A1', '397-EP2272973A1', '397-EP2275411A2', '397-EP2275420A1', '397-EP2277872A1', '397-EP2298745A1', '397-EP2298761A1', '397-EP2301929A1', '397-EP2301934A1', '397-EP2301935A1', '397-EP2305674A1', '397-EP2308861A1', '397-EP2311841A1', 'Dimethyl ether [UN1033]  [Flammable gas]', 'FT-0628727', 'M0224', '90196-EP2272834A1', '90196-EP2301929A1', '90196-EP2301935A1', '90196-EP2305674A1', '119350-EP2371811A2', '119350-EP2373602A1', 'Q408050', '2F2']"