Number;IUPAC_name;Charge;Molecular Formula;Molecular Weight [g/mol];Isomeric SMILES;Pubchem CID;GasPhaseAcidity_B2PLYP//DLPNO-CCSD(T) [kcal/mol];GSolv_Ion_Water [kcal/mol];GSolv_Ion_DMSO [kcal/mol];GSolv_Ion_Acetonitrile [kcal/mol];GSolv_Ion_MeOH [kcal/mol];Gsolv_Neutral_Water_exp [kcal/mol];Gsolv_Neutral_DMSO_TZVPD-Fine [kcal/mol];Gsolv_Neutral_Acetonitrile_TZVPD-Fine [kcal/mol];Gsolv_Neutral_MeOH_TZVPD-Fine [kcal/mol];pka_water;pka_DMSO;pka_Acetonitrile;pka_MeOH;Synonyms
1;acetylene;-1;C2H2;26.04;C#C;6326;371.6;-81.0;;;;0;-2.3;-2.2;-1.7;21.7;;;;['ACETYLENE', 'Ethyne', 'Acetylen', 'Narcylen', 'Vinylene', 'Ethine', '74-86-2', 'Ethenylene', 'Azetylen', 'C2H2', 'Ethin', 'UNII-OC7TV75O83', 'CH#CH', 'HC#CH', '[CH(CH)]', 'OC7TV75O83', 'CHEBI:27518', 'ethen-1,2-diyl', 'HSDB 166', 'EINECS 200-816-9', 'UN1001', 'Dicarbon', 'Vinylene radical', 'Welding Gas', 'Acetylene, dissolved', 'Carbon (C2)', 'EC 200-816-9', 'CHEMBL116336', 'DTXSID6026379', 'c0526', 'MCULE-9422154630', 'UN 1001', '7777-EP2272828A1', '7777-EP2272832A1', '7777-EP2275417A2', '7777-EP2275418A1', '7777-EP2275427A1', '7777-EP2275469A1', '7777-EP2277848A1', '7777-EP2280274A2', '7777-EP2282200A2', '7777-EP2284157A1', '7777-EP2284159A1', '7777-EP2284162A2', '7777-EP2284163A2', '7777-EP2287940A1', '7777-EP2289965A1', '7777-EP2292586A2', '7777-EP2292604A2', '7777-EP2295399A2', '7777-EP2295412A1', '7777-EP2295413A1', '7777-EP2295433A2', '7777-EP2295503A1', '7777-EP2301536A1', '7777-EP2301538A1', '7777-EP2301937A1', '7777-EP2305677A1', '7777-EP2305808A1', '7777-EP2305825A1', '7777-EP2308843A1', '7777-EP2308857A1', '7777-EP2308861A1', '7777-EP2308882A1', '7777-EP2311455A1', '7777-EP2311814A1', '7777-EP2311836A1', '7777-EP2316452A1', '7777-EP2316905A1', '7777-EP2316906A2', '7777-EP2380867A1', 'C01548', '10951-EP2269610A2', '10951-EP2272839A1', '10951-EP2272840A1', '10951-EP2277848A1', '10951-EP2277881A1', '10951-EP2281818A1', '10951-EP2289510A1', '10951-EP2289518A1', '10951-EP2292231A1', '10951-EP2298743A1', '10951-EP2298767A1', '10951-EP2298770A1', '10951-EP2305653A1', '10951-EP2314587A1', '10951-EP2316457A1', '10951-EP2316458A1', '10951-EP2316825A1', '10951-EP2316826A1', '10951-EP2316827A1', '10951-EP2316828A1', '10951-EP2371811A2', '16125-EP2281563A1', '16125-EP2308848A1', '16125-EP2316459A1', '17246-EP2272822A1', '17246-EP2272832A1', '17246-EP2272843A1', '17246-EP2275469A1', '17246-EP2277858A1', '17246-EP2281817A1', '17246-EP2284169A1', '17246-EP2287161A1', '17246-EP2287162A1', '17246-EP2287940A1', '17246-EP2289965A1', '17246-EP2292593A2', '17246-EP2295414A1', '17246-EP2298767A1', '17246-EP2298828A1', '17246-EP2301922A1', '17246-EP2301932A1', '17246-EP2301983A1', '17246-EP2305672A1', '17246-EP2305695A2', '17246-EP2305696A2', '17246-EP2305697A2', '17246-EP2305698A2', '17246-EP2308510A1', '17246-EP2308828A2', '17246-EP2308882A1', '17246-EP2308926A1', '17246-EP2308960A1', '17246-EP2309564A1', '17246-EP2309584A1', '17246-EP2311850A1', '17246-EP2314586A1', '17246-EP2314587A1', '38152-EP2301932A1', '38152-EP2311796A1', '38152-EP2311797A1', '38152-EP2311798A1', '38152-EP2311799A1', 'Acetylene, dissolved [UN1001]  [Flammable gas]', 'Q133145', 'Q3591986']
2;methanamine;1;CH5N;31.057;CN;6329;206.9;-73.2;-72.0;-82.3;-73.9;-4.6;-2.9;-3.0;-4.8;10.6;11;18.4;11;"['METHYLAMINE', 'Methanamine', 'Aminomethane', '74-89-5', 'Monomethylamine', 'Carbinamine', 'Mercurialin', 'N-Methylamine', 'Methylaminen', 'Metilamine', 'Metyloamina', 'Methylamine aq', 'monomethyl amine', 'Anhydrous Methylamine', 'Methylamine solutions', 'methyl-amine', 'UNII-BSF23SJ79E', 'MeNH2', 'Methylamine, anhydrous', 'CH3NH2', 'BSF23SJ79E', 'CHEBI:16830', 'MFCD00008104', 'NME', 'Methylaminen [Dutch]', 'Metilamine [Italian]', 'Metyloamina [Polish]', 'methylamin', 'methyl amine', 'CCRIS 2508', 'HSDB 810', 'EINECS 200-820-0', 'UN1061', 'UN1235', 'AI3-15637-X', 'methaneamine', 'methlamine', 'methlyamine', 'methyamine', 'methylammonia', 'methylarnine', 'metylamine', 'methyl group', 'methylamine-', 'mono-methylamine', 'N-methyl amine', 'Methylamine, in aqueous solution', 'mono methyl amine', 'mono-methyl amine', 'Methylamine solution', 'Methylamine anhydrous', 'Methylamine solution (42% or less)', 'Aminomethylidyneradical', 'H2NMe', 'NH2Me', 'ACMC-1BEIQ', 'Methanamine (methylamine)', 'DEA Code 8520', 'H2NCH3', 'NH2CH3', 'EC 200-820-0', 'Methylamine aqueous solution', 'Methylamine, >=99.0%', 'Methylamine, 2M in methanol', 'CH3-NH2', 'Methylamine, aqueous solution', 'Integrase inhibitor, R3{3}', 'UN 1235 (Salt/Mix)', 'CHEMBL43280', 'Methylamine, 33% in ethanol', 'Methylamine, purum, >99.5%', 'DTXSID7025683', 'Methylamine, solution in ethanol', 'Methylamine, anhydrous, >=98%', 'Methylamine, purum, >=99.0%', 'Methanamine-d2;Methyl(2H2)amine', 'Methylamine, ca. 2 M in ethanol', 'Methyl Of Gamma-N-Methylasparagine', 'Methylamine, 2M in tetrahydrofuran', 'BCP31897', 'STR00032', 'BDBM50416492', 'BP-11399B', 'STL281863', 'Methylamine solution, 2.0 M in THF', 'AKOS009031510', 'DB01828', 'MCULE-1379281060', 'UN 1061', 'Methylamine solution, 2.0 M in methanol', 'Methylamine solution, 40 wt. % in H2O', 'FT-0628859', 'M0137', 'M1016', 'M2108', 'M2323', 'M2324', 'C00218', 'Q409304', 'Methylamine solution, 33 wt. % in absolute ethanol', 'Methylamine, anhydrous [UN1061]  [Flammable gas]', 'Methylamine, aqueous solution [UN1235]  [Flammable liquid]', 'Polystyrene AM-NH2, macrobeads, extent of labeling: 0.8-1.4 mmol/g N loading', '3P8', 'JandaJel(TM)-NH2, 100-200 mesh, extent of labeling: 1.0 mmol/g N loading, 2 % cross-linked', 'JandaJel(TM)-NH2, 200-400 mesh, extent of labeling: 1.0 mmol/g N loading, 2 % cross-linked', 'JandaJel(TM)-NH2, 50-100 mesh, extent of labeling: 1.0 mmol/g N loading, 2 % cross-linked']"
3;propan-1-amine;1;C3H9N;59.11;CCCN;7852;212.0;-67.9;;-77.6;;-4.4;-3.3;-3.7;-5.4;10.6;;18.2;;['Propylamine', 'Propan-1-amine', '1-Propanamine', '107-10-8', '1-Propylamine', 'n-Propylamine', 'Propanamine', '1-AMINOPROPANE', 'Monopropylamine', 'Mono-n-propylamine', 'propyl amine', 'n-Propyl Amine', 'RCRA waste number U194', 'propyl amines', 'NSC 7490', 'n-C3H7NH2', 'UNII-I76F18D635', '(C6-C12)Alkylalkoxypropyleneamine', '1-Propanamine, 3-(C6-12-alkyloxy) derivs.', '(C10-C16)Alkylalkoxypropyleneamine', '(C14-C18)Alkylalkoxypropyleneamine', '(C6-C12) Alkylalkoxypropyleneamine', '1-Propanamine, 3-(C10-16-alkyloxy) derivs.', '1-Propanamine, 3-(C12-18-alkyloxy) derivs.', '1-Propanamine, 3-(C14-18-alkyloxy) derivs.', '1-Propanamine, 3-(C16-22-alkyloxy) derivs.', '(C10-C16) Alkylalkoxypropyleneamine', '(C12-C18) Alkylalkoxypropyleneamine', '(C16-C22)Alkyl alkoxypropyleneamine', '1-Propanamine, homopolymer', '(C12-C18)Alkyl alkoxypropylene amine', 'CHEBI:39870', 'MFCD00008205', 'I76F18D635', '58479-39-3', 'AYE', 'HSDB 5162', '3-AMINOPROPYL', 'EINECS 203-462-3', 'UN1277', 'RCRA waste no. U194', 'aminopropane', 'AI3-26456', 'n-propyl-amine', '3-propylamine', 'N-n-propylamine', 'propane-1-amine', '2-methylethylamine', 'n-prop-1-ylamine', 'Propanamine, 9CI', 'EINECS 268-601-2', 'EINECS 268-602-8', 'EINECS 269-096-1', 'EINECS 269-097-7', 'EINECS 269-098-2', 'Propylamine, 98%', 'Propylamine-[15N]', 'PrNH2', 'Propylamine, >=99%', 'Propylamine [UN1277] [Flammable liquid]', '3-Aminopropyl Silica Gel', 'ACMC-1BOF1', 'NH2CH2CH2CH3', 'EC 203-462-3', 'WLN: Z3', '68130-69-8', '68130-70-1', '68187-43-9', '68187-44-0', '68187-45-1', 'CHEMBL14409', 'Propylamine, analytical standard', 'DTXSID6021878', 'NSC7490', 'BCP18818', 'NSC-7490', 'STR01427', 'STL185558', 'ZINC16052656', 'AKOS000120278', 'MCULE-2885523792', 'UN 1277', 'Propylamine, purum, >=99.0% (GC)', 'DB-002025', 'FT-0656405', 'P0520', 'Propylamine [UN1277]  [Flammable liquid]', '13839-EP2281563A1', '13839-EP2287141A1', '13839-EP2287165A2', '13839-EP2287166A2', '13839-EP2289894A2', '13839-EP2292620A2', '13839-EP2308812A2', '13839-EP2311802A1', '13839-EP2311803A1', '13839-EP2311804A2', '13839-EP2314582A1', '13839-EP2316836A1', '52735-EP2269999A1', '52735-EP2289894A2', '52735-EP2292597A1', '52735-EP2295432A1', '52735-EP2298728A1', '52735-EP2298742A1', '52735-EP2298761A1', '52735-EP2308838A1', '52735-EP2308841A2', '52735-EP2371814A1', '52735-EP2377849A2', '79539-EP2305695A2', '79539-EP2305696A2', '79539-EP2305697A2', '79539-EP2305698A2', '144227-EP2287165A2', '144227-EP2287166A2', '144227-EP2292620A2', 'A801584', 'Q417852', 'J-001703', 'F2190-0357']
4;propan-2-amine;1;C3H9N;59.11;CC(C)N;6363;213.5;-65.7;;;;-3.7;-3.4;-3.7;-5.5;10.6;;;;['ISOPROPYLAMINE', 'propan-2-amine', '2-Propanamine', '75-31-0', '2-Aminopropane', 'Monoisopropylamine', '2-Propylamine', 'sec-Propylamine', '1-Methylethylamine', 'isopropyl amine', 'Isopropilamina', 'Propane, 2-amino-', '2-Aminopropan', '2-Amino-propaan', '2-Amino-propano', 'Isopropylamin', 'UNII-P8W26T4MTD', 'MFCD00008082', 'NSC 62775', 'P8W26T4MTD', 'CHEBI:15739', '2-Propaneamine', 'Isopropilamina [Italian]', '2-Aminopropan [German]', '2-Amino-propaan [Dutch]', '2-Amino-propano [Italian]', 'CCRIS 4318', 'HSDB 804', 'EINECS 200-860-9', 'UN1221', 'isopropylarnine', 'isoproylamine', 'i-propylamine', 'iso-propylamine', 'isopropyl-amine', 'AI3-15636', 'i-propyl amine', 'iso- propylamine', 'iso-propyl amine', 'propane-2-amine', '2-propyl amine', 'propan-2 -amine', 'iso-Propylamine gas', 'iPrNH2', '(1-methylethyl)amine', 'Isopropylamine solution (70% or less)', 'i-PrNH2', 'Isopropylamine, 97%', 'Isopropylamine, 99%', 'iso-C3H7NH2', '2-AMINO-PROPANE', 'ACMC-1BL1J', 'EC 200-860-9', 'Isopropylamine, >=99.5%', 'CHEMBL117080', 'WLN: ZY1&1', 'Monoisopropylamine Reagent Grade', 'DTXSID2025682', 'Isopropylamine, >=97.0% (GC)', 'NSC62775', 'STR00028', 'ZINC8220693', 'NSC-62775', 'STL194288', 'AKOS000119321', 'MCULE-7280647435', 'UN 1221', 'FT-0611265', 'I0165', 'Isopropylamine, anhydrous, analytical standard', 'Isopropylamine, SAJ special grade, >=99.0%', '6099-EP2269610A2', '6099-EP2270011A1', '6099-EP2272517A1', '6099-EP2274983A1', '6099-EP2275398A1', '6099-EP2275404A1', '6099-EP2275414A1', '6099-EP2277848A1', '6099-EP2277867A2', '6099-EP2280003A2', '6099-EP2281563A1', '6099-EP2284149A1', '6099-EP2284157A1', '6099-EP2284160A1', '6099-EP2287141A1', '6099-EP2287165A2', '6099-EP2287166A2', '6099-EP2289510A1', '6099-EP2289893A1', '6099-EP2292576A2', '6099-EP2292597A1', '6099-EP2292620A2', '6099-EP2295409A1', '6099-EP2295418A1', '6099-EP2298735A1', '6099-EP2298743A1', '6099-EP2298744A2', '6099-EP2298761A1', '6099-EP2301931A1', '6099-EP2301937A1', '6099-EP2305257A1', '6099-EP2305636A1', '6099-EP2305677A1', '6099-EP2305682A1', '6099-EP2308812A2', '6099-EP2308838A1', '6099-EP2308840A1', '6099-EP2308851A1', '6099-EP2308877A1', '6099-EP2308879A1', '6099-EP2311808A1', '6099-EP2311814A1', '6099-EP2311829A1', '6099-EP2311831A1', '6099-EP2314590A1', '6099-EP2314593A1', '6099-EP2316457A1', '6099-EP2316458A1', '6099-EP2316825A1', '6099-EP2316826A1', '6099-EP2316827A1', '6099-EP2316828A1', '6099-EP2380874A2', 'C06748', 'Isopropylamine [UN1221]  [Flammable liquid]', '28040-EP2289893A1', '28040-EP2295411A1', '28040-EP2298744A2', '28040-EP2308851A1', '28040-EP2314588A1', '59616-EP2284166A1', '59616-EP2308852A1', 'A838376', 'Q420554', 'Isopropylamine (purified by distillation from glass)', 'F2190-0359', 'G4O']
5;2-methylpropan-2-amine;1;C4H11N;73.14;CC(C)(C)N;6385;215.7;-63.8;;-74.1;;-3.9;-3.6;-4.1;-5.8;10.7;;18.1;;['tert-Butylamine', '75-64-9', '2-methylpropan-2-amine', 't-Butylamine', 'Erbumine', '2-Amino-2-methylpropane', '2-Propanamine, 2-methyl-', '1,1-Dimethylethylamine', '2-Aminoisobutane', '1,1-Dimethylethanamine', 'TERTIARY-BUTYLAMINE', '2-METHYL-2-PROPANAMINE', 'Butylamine, tert', '2-Methyl-2-propylamine', '2-Methyl-2-aminopropane', 'Butylamine, tertiary', 'tert-butyl-amine', 'tertbutylamine', 'tert-Butylamin', 't-Butyl amine', 'tert-butyl amine', 'tert.-butylamine', 'N-tert-butylamine', 'NSC 9571', 'UNII-91Z53KF68U', 'tert-C4H9NH2', 'MFCD00008050', '1-amino-1,1-dimethylethane', 'CHEBI:44639', '91Z53KF68U', 'NSC-9571', 'Erbumine [INN]', 'CCRIS 4758', 'HSDB 5209', 'EINECS 200-888-1', 'CP 11093', 't-butylarnine', 'ter-butylamine', 'tert butylamine', 'tert-buylamine', 'tert.butylamine', 'tert-buyl amine', 'AI3-24036', 't-butyl-amine', 't-butylamine-', 'tert. butylamine', 'tert.butyl-amine', 'tertiarybutylamine', 'N-tert.butylamine', 'tert. -butylamine', 'tert. butyl amine', 'tertiary butylamine', 'tert-BuNH2', 'N-tert-butyl amine', 'N-tert-butyl-amine', 'N-tert.-butylamine', 'tBuNH2', 'Tertiary butyl amine', '1,1dimethylethanamine', 't-BuNH2', 'ACMC-209ozc', 'tert-Butylamine, 98%', '2-methyl-2-propaneamine', '2-methylpropane-2-amine', 'DSSTox_CID_4681', '(1,1-dimethylethyl)amine', 'EC 200-888-1', 'DSSTox_RID_77497', 'DSSTox_GSID_24681', 'CHEMBL13782', 'DTXSID5024681', 'NSC9571', 'PROPANE,2-AMINO,2-METHYL', 'WLN: ZX1&1&1', 'AMY40503', 'BCP30723', 'STR00192', 'ZINC4789979', 'Tox21_301289', 'STL185610', 'AKOS000269018', 'MCULE-6304532422', 'CAS-75-64-9', 'NCGC00257538-01', 'B0709', 'FT-0653937', 'W8285', 'EN300-16766', 'D87618', '12437-EP2269999A1', '12437-EP2305672A1', '12437-EP2311804A2', '12437-EP2314295A1', '12437-EP2314593A1', '12437-EP2316974A1', '22166-EP2301923A1', '22166-EP2311814A1', '22166-EP2314590A1', '22166-EP2314593A1', '32619-EP2275398A1', '32619-EP2287141A1', '32619-EP2289891A2', '32619-EP2295406A1', '32619-EP2301933A1', '32619-EP2305250A1', '32619-EP2308812A2', '32619-EP2308873A1', '32619-EP2311814A1', '32619-EP2311827A1', '32755-EP2301933A1', '32755-EP2311827A1', '153203-EP2277863A1', '153203-EP2277882A1', '153203-EP2281822A1', '163586-EP2281861A2', '163586-EP2284166A1', 'Q288188', 'J-510081', 'tert-Butylamine, purified by redistillation, >=99.5%', 'F2190-0362', '2-Methylpropan-2-amine pound>>t-Butylamine pound>>2-Amino-2-methylpropane']
6;cyclohexanamine;1;C6H13N;99.17;C1CCC(CC1)N;7965;216.2;-64.5;;;;-5.1;-4.8;-5.4;-7.2;10.7;;;;['CYCLOHEXYLAMINE', 'Cyclohexanamine', '108-91-8', 'Aminocyclohexane', 'Hexahydroaniline', 'Hexahydrobenzenamine', 'Aminohexahydrobenzene', 'Cyclohexyl amine', '1-Cyclohexylamine', '1-Aminocyclohexane', 'Aniline, hexahydro-', 'Benzenamine, hexahydro-', 'Aminocylcohexane', 'Cyclohexylamines', 'cyclohexyl-amine', 'UNII-I6GH4W7AEG', '1-AMINO-CYCLOHEXANE', 'CCRIS 3645', 'HSDB 918', 'cyclohexaneamine', 'Cyclohexylamine.HCl', 'I6GH4W7AEG', 'Cyclohexylamin', 'CHEBI:15773', 'MFCD00001486', 'Cyclohexylamine [UN2357]  [Corrosive]', 'DSSTox_CID_3996', 'DSSTox_RID_77250', 'DSSTox_GSID_23996', '157973-60-9', 'CAS-108-91-8', 'HAI', 'EINECS 203-629-0', 'UN2357', 'BRN 0471175', 'cylohexylamine', 'cyclohexylarnine', 'cyclo-hexylamine', 'AI3-15323', 'cyclohexane-amine', 'n-cyclohexylamine', 'cyclohexanyl amine', 'Hexahydro-Aniline', 'monocyclohexylamine', '4-Cyclohexylamine', 'Cyclohexylamine,(S)', 'Hexahydro-Benzenamine', 'Cyclohexanamine, 9CI', 'CyNH2', 'Cyclohexylamine [UN2357] [Corrosive]', 'ACMC-1BUGG', 'Cyclohexylamine, 99.5%', 'bmse000451', 'EC 203-629-0', '4-12-00-00008 (Beilstein Handbook Reference)', 'BIDD:ER0290', 'GTPL5507', 'CHEMBL1794762', 'DTXSID1023996', 'BDBM81970', 'BCP30928', 'Tox21_202380', 'Tox21_300038', 'BBL002476', 'STK387114', 'ZINC12358775', 'AKOS000119083', 'Cyclohexylamine, ReagentPlus(R), 99%', 'MCULE-7654331405', 'UN 2357', 'VS-0326', 'Aminocyclohexane pound>>Hexahydroaniline', 'NCGC00247889-01', 'NCGC00247889-02', 'NCGC00253922-01', 'NCGC00259929-01', 'AM802905', 'BP-21278', 'CAS_108-91-8', 'NCI60_004907', 'Cyclohexylamine 1000 microg/mL in Methanol', 'Cyclohexylamine, ReagentPlus(R), >=99.9%', 'FT-0624217', 'X6008', 'C00571', '46880-EP2272837A1', '46880-EP2277848A1', '46880-EP2277862A2', '46880-EP2281563A1', '46880-EP2284159A1', '46880-EP2284174A1', '46880-EP2287141A1', '46880-EP2292228A1', '46880-EP2292621A1', '46880-EP2295406A1', '46880-EP2295418A1', '46880-EP2298731A1', '46880-EP2298746A1', '46880-EP2298778A1', '46880-EP2305219A1', '46880-EP2305651A1', '46880-EP2308812A2', '46880-EP2308833A2', '46880-EP2308854A1', '46880-EP2311804A2', '46880-EP2311810A1', '46880-EP2380874A2', '56751-EP2284166A1', '56751-EP2298769A1', '56751-EP2308878A2', 'J-002206', 'J-520164', 'Q1147539', 'F2190-0381']
7;prop-2-en-1-amine;1;C3H7N;57.09;C=CCN;7853;210.1;-68.2;;;;-4.3;-4.1;-4.3;-5.7;9.5;;;;"['ALLYLAMINE', '107-11-9', '2-Propen-1-amine', 'prop-2-en-1-amine', 'Monoallylamine', '3-Aminopropene', '3-Aminopropylene', '2-Propenamine', '3-Amino-1-propene', '2-Propenylamine', 'Allyl Amine', 'NSC 7600', '2-Propen-1-ylamine', 'UNII-48G762T011', '30551-89-4', 'Polyallylamine', '48G762T011', 'allylaminehydrochloride', 'allylamin', 'CCRIS 4746', 'HSDB 2065', 'EINECS 203-463-9', 'UN2334', 'ailylamine', 'BRN 0635703', 'allyl-amine', 'N-allylarnine', 'N-allylamine', 'AI3-23214', '2-propenyl amine', '(2-propenyl)amine', 'Allylamine, 98%', '1-amino-2-propene', 'Allylamine, >=99%', 'Poly(allylamine) solution', 'CH2=CHCH2NH2', 'EC 203-463-9', '4-04-00-01057 (Beilstein Handbook Reference)', 'WLN: Z2U1', 'Allylamine;3-amino-1-propene', 'CHEMBL57286', 'DTXSID8024440', 'NSC7600', 'CHEBI:188938', 'Allylamine [UN2334]  [Poison]', 'BCP27099', 'NSC-7600', 'STR00193', 'BDBM50225454', 'CP0091', 'MFCD00008199', 'STL185583', 'ZINC17654097', 'AKOS000119634', 'Allylamine, purum, >=98.0% (GC)', 'MCULE-2424616806', 'UN 2334', 'Allylamine, puriss., >=99.5% (GC)', 'NCGC00159381-02', 'A0219', '15229-EP2272838A1', '15229-EP2281563A1', '15229-EP2295418A1', '15229-EP2311802A1', '15229-EP2311803A1', '15229-EP2311804A2', '15229-EP2316832A1', '15229-EP2316833A1', '15244-EP2316832A1', '15244-EP2316833A1', 'Q417414', 'F2190-0363']"