Number;IUPAC_name;Charge;Molecular Formula;Molecular Weight [g/mol];Isomeric SMILES;Pubchem CID;GasPhaseAcidity_B2PLYP//DLPNO-CCSD(T) [kcal/mol];GSolv_Ion_Water [kcal/mol];GSolv_Ion_DMSO [kcal/mol];GSolv_Ion_Acetonitrile [kcal/mol];GSolv_Ion_MeOH [kcal/mol];Gsolv_Neutral_Water_exp [kcal/mol];Gsolv_Neutral_DMSO_TZVPD-Fine [kcal/mol];Gsolv_Neutral_Acetonitrile_TZVPD-Fine [kcal/mol];Gsolv_Neutral_MeOH_TZVPD-Fine [kcal/mol];pka_water;pka_DMSO;pka_Acetonitrile;pka_MeOH;Synonyms
207;4-methylphenol;-1;C7H8O;108.14;CC1=CC=C(C=C1)O;2879;345.0;;-69.2;;-73.8;;-11.0;-9.4;-9.7;;18.9;;14.6;['P-CRESOL', '4-Methylphenol', '106-44-5', '4-Cresol', '4-Hydroxytoluene', 'Phenol, 4-methyl-', 'para-Cresol', 'p-Methylphenol', 'p-Hydroxytoluene', 'p-Tolyl alcohol', 'p-Kresol', 'p-Oxytoluene', 'p-Toluol', 'p-Cresylic acid', '1-Hydroxy-4-methylbenzene', 'p-Methylhydroxybenzene', 'Paracresol', 'Paramethyl phenol', '1-Methyl-4-hydroxybenzene', 'para-Cresylic acid', '4-methyl phenol', 'Cresol, para-', 'p-Kresol [German]', 'Cresol, p-isomer', 'Cresol, p-', 'CRESOL, PARA', 'p-Methyl phenol', 'UNII-1MXY2UM8NV', '4-methyl-phenol', '4-methylphenol (p-cresol)', 'NSC 3696', 'MFCD00002376', '1MXY2UM8NV', 'Tricresol', 'CHEMBL16645', 'Phenol, 4-methyl-, homopolymer', 'CHEBI:17847', 'NCGC00091519-04', 'TOLUENE,4-HYDROXY  (PARA-CRESOL)', 'p-Cresol [UN2076]  [Poison, Corrosive]', 'DSSTox_CID_1869', 'DSSTox_RID_76375', 'DSSTox_GSID_21869', 'PCR', '27289-34-5', 'CAS-106-44-5', 'CCRIS 647', 'FEMA No. 2337', 'HSDB 1814', 'EINECS 203-398-6', 'para cresol', 'p-Cresylate', 'p-methyl-phenol', 'AI3-00150', '4 -methylphenol', 'Cresol,p-', 'para-cresyl alcohol', 'Phenol, 4-methyI', 'p-Cresol, 99%', 'Spectrum_000850', 'p-Cresol, High Purity', '4-Methyl Phenol 99%', 'Spectrum2_000765', 'Spectrum4_001740', 'Spectrum5_000540', 'ACMC-1BP9F', 'SCHEMBL375', 'bmse000458', 'EC 203-398-6', 'DSSTox_RID_77380', 'DSSTox_RID_77554', 'NCIOpen2_001516', 'WLN: QR D1', 'DSSTox_GSID_24364', 'DSSTox_GSID_24858', 'KBioGR_002160', 'KBioSS_001330', '1-Hydroxyl 4-Methyl Benzene', 'p-Cresol, analytical standard', 'BIDD:ER0010', 'DivK1c_000381', 'SPECTRUM1500209', 'p-Cresol, >=99%, FG', 'SPBio_000810', 'SCHEMBL7812506', 'SGCUT00097', 'DTXSID7021869', 'HMS501D03', 'KBio1_000381', 'KBio2_001330', 'KBio2_003898', 'KBio2_006466', 'NSC3696', 'NINDS_000381', 'HMS1920A16', 'HMS2091I04', 'Pharmakon1600-01500209', 'ZINC897142', 'p-Cresol, for synthesis, 98.0%', '4-Methylphenol, analytical standard', 'NSC-3696', 'NSC95259', 'to_000033', 'Tox21_113240', 'Tox21_113445', 'Tox21_200402', 'Tox21_201115', 'Tox21_300029', 'BDBM50008543', 'CCG-38990', 'NSC-95259', 'NSC756709', 'STL183323', 'AKOS000119005', 'Tox21_113445_1', 'DB01688', 'MCULE-2287247927', 'NSC-756709', 'IDI1_000381', 'NCGC00013272-01', 'NCGC00091519-01', 'NCGC00091519-02', 'NCGC00091519-03', 'NCGC00091519-05', 'NCGC00091519-06', 'NCGC00091519-07', 'NCGC00091519-09', 'NCGC00253980-01', 'NCGC00257956-01', 'NCGC00258667-01', '4-Methylphenol 10 microg/mL in Methanol', 'PS-11958', 'CAS-1319-77-3', 'p-Cresol, JIS special grade, >=99.0%', 'SBI-0051322.P003', 'FT-0660000', '4-Methylphenol 100 microg/mL in Cyclohexane', 'p-Cresol, puriss. p.a., >=99.0% (GC)', '3645-EP2269989A1', '3645-EP2269992A1', '3645-EP2270505A1', '3645-EP2272517A1', '3645-EP2275413A1', '3645-EP2275414A1', '3645-EP2275420A1', '3645-EP2277865A1', '3645-EP2277880A1', '3645-EP2277898A2', '3645-EP2284157A1', '3645-EP2287165A2', '3645-EP2287166A2', '3645-EP2292088A1', '3645-EP2292227A2', '3645-EP2292593A2', '3645-EP2292610A1', '3645-EP2292620A2', '3645-EP2295406A1', '3645-EP2295407A1', '3645-EP2295423A1', '3645-EP2295429A1', '3645-EP2295503A1', '3645-EP2298736A1', '3645-EP2298742A1', '3645-EP2298750A1', '3645-EP2298772A1', '3645-EP2301536A1', '3645-EP2301538A1', '3645-EP2305250A1', '3645-EP2305633A1', '3645-EP2305808A1', '3645-EP2305825A1', '3645-EP2308839A1', '3645-EP2308855A1', '3645-EP2311455A1', '3645-EP2311494A1', '3645-EP2311811A1', '3645-EP2311822A1', '3645-EP2314590A1', '3645-EP2316452A1', '3645-EP2316830A2', '3645-EP2316937A1', '3645-EP2316974A1', '3645-EP2374895A1', 'C01468', '88248-EP2269977A2', '88248-EP2284157A1', '88248-EP2305625A1', '88248-EP2305648A1', 'AB00051955_02', 'Q312251', 'SR-05000002037', 'J-001591', 'J-515803', 'SR-05000002037-1', 'F1908-0066', 'UNII-3JYG22FD73 component IWDCLRJOBJJRNH-UHFFFAOYSA-N', 'UNII-GF3CGH8D7Z component IWDCLRJOBJJRNH-UHFFFAOYSA-N', '2876-02-0']
208;2-phenylacetic acid;-1;C8H8O2;136.15;C1=CC=C(C=C1)CC(=O)O;999;335.2;;;;-73.1;;-13.4;-11.6;-11.8;;;;9.4;['PHENYLACETIC ACID', '2-Phenylacetic acid', 'Benzeneacetic acid', '103-82-2', 'Phenylethanoic acid', 'alpha-Toluic acid', 'Acetic acid, phenyl-', 'phenylacetate', 'Benzenacetic acid', 'Benzylformic acid', 'Phenyllacetic acid', 'Benzylcarboxylic acid', 'PHENYL ACETIC ACID', 'Kyselina fenyloctova', 'Phenylacetic acid (natural)', 'Kyselina fenyloctova [Czech]', 'omega-Phenylacetic acid', 'UNII-ER5I1W795A', 'NSC 125718', 'BRN 1099647', '.alpha.-Toluic acid', 'CHEBI:30745', 'AI3-08920', 'PHENYL-ACETIC ACID', '.omega.-Phenylacetic acid', 'CHEMBL1044', 'ER5I1W795A', 'Benzeneacetate', 'MFCD00004313', 'NSC125718', 'NCGC00159477-02', 'DSSTox_CID_1656', 'DSSTox_RID_76268', 'DSSTox_GSID_21656', 'CAS-103-82-2', 'FEMA No. 2878', 'HSDB 5010', 'EINECS 203-148-6', 'Phenylacetic', 'Phenylethanoate', 'Phenylessigsaure', 'w-Phenylacetate', 'alpha-Toluate', 'phenylactic acid', 'a-Toluate', 'a-Toluic acid', 'Benzeneacetiic acid', 'omega-Phenylacetate', 'organic white solid', 'w-Phenylacetic acid', 'Phenylacetate, XIX', '2-phenyl-acetic acid', '1173020-54-6', 'Phenylacetic acid, 99%', 'bmse000220', 'Epitope ID:116202', 'EC 203-148-6', 'SCHEMBL1459', '4-09-00-01614 (Beilstein Handbook Reference)', 'Phenyl-[13C6]-acetic acid', 'DTXSID2021656', 'BDBM16419', 'ZINC388462', 'Phenylacetic acid_GurudeebanSatyavani', 'Tox21_113042', 'Tox21_200533', 'NSC139637', 'Phenylacetic acid, natural, >=99%', 'STK297835', 'Phenylacetic acid, analytical standard', 'AKOS000291351', 'Tox21_113042_1', 'DB09269', 'DL-0063', 'MCULE-6701370784', 'NSC-125718', 'NSC-139637', 'Phenylacetic acid, >=99%, FCC, FG', 'NCGC00159477-03', 'NCGC00159477-05', 'NCGC00258087-01', '51146-16-8', 'BP-11383', 'NCI60_000596', 'NCI60_002571', 'Phenylacetic acid, natural, >=99%, FG', 'DB-003759', 'DB-055176', 'FT-0641197', 'FT-0701063', 'Phenylacetic acid, plant cell culture tested', 'C07086', '28028-EP2269988A2', '28028-EP2270006A1', '28028-EP2270008A1', '28028-EP2272839A1', '28028-EP2272840A1', '28028-EP2275403A1', '28028-EP2275413A1', '28028-EP2287156A1', '28028-EP2292617A1', '28028-EP2295433A2', '28028-EP2301940A1', '28028-EP2305250A1', '28028-EP2305260A1', '28028-EP2305658A1', '28028-EP2308833A2', '28028-EP2308848A1', '28028-EP2311807A1', '28028-EP2311809A1', '28028-EP2311825A1', '28028-EP2314588A1', '79377-EP2298766A1', '79377-EP2305695A2', '79377-EP2305696A2', '79377-EP2305697A2', '79377-EP2305698A2', 'Q410842', '8727557E-AA75-49E9-8E5A-7A2412D71888', 'Tropicamide Related Compound D, United States Pharmacopeia (USP) Reference Standard', 'Tropicamide impurity D (Phenylacetic acid - Drug Precursor), European Pharmacopoeia (EP) Reference Standard']
209;ethynylbenzene;-1;C8H6;102.13;C#CC1=CC=CC=C1;10821;364.0;;-69.8;;;;-6.0;-6.0;-5.6;;28.7;;;['Ethynylbenzene', 'PHENYLACETYLENE', '536-74-3', 'Phenylethyne', 'Benzene, ethynyl-', 'ethynyl-benzene', 'phenyl acetylene', '1-Phenylethyne', 'Phenylacetylide', 'Ethyne, phenyl-', 'Acetylene, phenyl-', 'ethynyl benzene', 'Phenylacethylene', '1-ethynylbenzene', 'UNII-239WSR2IBO', '126716-66-3', '239WSR2IBO', 'NSC 4957', 'EINECS 208-645-1', 'ethynylbenzen', 'phenylacetylen', 'Ethinylbenzene', 'phenyl-acetylene', 'AI3-24180', 'C8H6', '1-phenylacetylene', '1-ethynyl-benzene', 'Phenylacetylene, 98%', 'ACMC-1ASVJ', 'Ph-C=CH', 'Phenylacetylene, ~98%', 'WLN: 1UU1R', 'Phenyl acetylene-1-[13C]', 'CHEMBL234833', 'DTXSID1060211', 'AMY4006', 'NSC4957', 'CHEBI:167069', 'ACT08960', 'NSC-4957', 'ZINC1680639', '1-Phenylethane-1,2-diylideneradical', 'MFCD00008570', 'AKOS000269051', 'LS10701', 'MCULE-7733093225', 'ETHYNYL-BENZENE (PHENYLACETYLENE)', 'AS-12473', 'Phenylacetylene, purum, >=97.0% (GC)', 'E0196', 'FT-0626367', 'EN300-19670', 'D90456', '58860-EP2298742A1', '58860-EP2305677A1', '58860-EP2305682A1', '58860-EP2305769A2', '58860-EP2308879A1', '72385-EP2308867A2', '72385-EP2308870A2', '72385-EP2380867A1', '74143-EP2295402A2', '74143-EP2308869A1', '74143-EP2380867A1', 'A829727', 'Q417321', 'J-802270', 'F0001-1393']
210;2-phenylpropanedinitrile;-1;C9H6N2;142.16;C1=CC=C(C=C1)C(C#N)C#N;18234;313.3;;-58.1;;;;-11.5;-10.7;-10.1;;4.2;;;['2-Phenylmalononitrile', '3041-40-5', 'Phenylmalononitrile', '2-Phenyl-malononitrile', '2-phenylpropanedinitrile', 'Propanedinitrile, phenyl-', 'Phenyl-malonitril', 'MALONONITRILE, PHENYL-', 'UNII-5M3K6FPU6O', '5M3K6FPU6O', 'Phenyl-malonitril [German]', 'NSC 10742', 'BRN 2044503', 'Phenylpropanedinitrile', '2-phenyl-propanedinitrile', 'Propanedinitrile, 2-phenyl-', 'SCHEMBL1325882', 'DTXSID80184493', 'NSC10742', 'ZINC1712444', 'NSC-10742', 'AKOS006274515', 'AC-1561', 'AS-58968', 'R007', 'DB-082984', 'FT-0721601', '041P405', 'A820359']
211;1H-pyrazole;-1;C3H4N2;68.08;C1=CNN=C1;1048;348.8;;-70.6;;;;-9.8;-8.1;-9.0;;19.8;;;['pyrazole', '1H-Pyrazole', '288-13-1', '1,2-diazole', '1H-pyrazol', 'Pyrazol', 'diazole', 'UNII-3QD5KJZ7ZJ', '1H-Pyrazole, homopolymer', 'MFCD00005234', '3QD5KJZ7ZJ', 'CHEBI:17241', 'NSC45410', '105809-46-9', 'Hpz', 'EINECS 206-017-1', 'NSC 45410', 'AI3-60151', 'Pyrazole-', '3-pyrazole', '1-h-pyrazole', 'Pyrazol#1', 'Pyrazole, 98%', 'ACMC-1CPBR', 'WLN: T5MNJ', 'EC 206-017-1', 'CHEMBL15967', 'AMY795', 'DTXSID2059774', 'ZINC895257', 'ACT08445', 'BCP26863', 'EBD25393', 'STR00103', 'BBL013144', 'BDBM50390969', 'NSC-45410', 's3093', 'STK400566', 'AKOS000121045', 'Pyrazole, purum, >=98.0% (GC)', 'CS-W008829', 'DB02757', 'LS21032', 'MCULE-9342475145', 'BP-12835', 'HY-76228', 'NCI60_004054', 'Pyrazole, Vetec(TM) reagent grade, 98%', '257-EP2292608A1', '257-EP2301923A1', '257-EP2305658A1', '257-EP2315303A1', 'FT-0658357', 'P0546', '6020-EP0930075A1', '6020-EP2269977A2', '6020-EP2269978A2', '6020-EP2269985A2', '6020-EP2269991A2', '6020-EP2269992A1', '6020-EP2269993A1', '6020-EP2270008A1', '6020-EP2270010A1', '6020-EP2270014A1', '6020-EP2270113A1', '6020-EP2270505A1', '6020-EP2272509A1', '6020-EP2272510A1', '6020-EP2272517A1', '6020-EP2272537A2', '6020-EP2272813A2', '6020-EP2272827A1', '6020-EP2272828A1', '6020-EP2272832A1', '6020-EP2272848A1', '6020-EP2272849A1', '6020-EP2272935A1', '6020-EP2272972A1', '6020-EP2272973A1', '6020-EP2274983A1', '6020-EP2275395A2', '6020-EP2275401A1', '6020-EP2275404A1', '6020-EP2275409A1', '6020-EP2275411A2', '6020-EP2275412A1', '6020-EP2275469A1', '6020-EP2276743A1', '6020-EP2277872A1', '6020-EP2277874A1', '6020-EP2277876A1', '6020-EP2280000A1', '6020-EP2280009A1', '6020-EP2281563A1', '6020-EP2281815A1', '6020-EP2281818A1', '6020-EP2281819A1', '6020-EP2284150A2', '6020-EP2284151A2', '6020-EP2284152A2', '6020-EP2284153A2', '6020-EP2284155A2', '6020-EP2284156A2', '6020-EP2284157A1', '6020-EP2284159A1', '6020-EP2284164A2', '6020-EP2284920A1', '6020-EP2287140A2', '6020-EP2287148A2', '6020-EP2287150A2', '6020-EP2287165A2', '6020-EP2287166A2', '6020-EP2287167A1', '6020-EP2287940A1', '6020-EP2289871A1', '6020-EP2289883A1', '6020-EP2289894A2', '6020-EP2289965A1', '6020-EP2292227A2', '6020-EP2292228A1', '6020-EP2292586A2', '6020-EP2292590A2', '6020-EP2292592A1', '6020-EP2292593A2', '6020-EP2292597A1', '6020-EP2292604A2', '6020-EP2292606A1', '6020-EP2292611A1', '6020-EP2292613A1', '6020-EP2292614A1', '6020-EP2292617A1', '6020-EP2292619A1', '6020-EP2292620A2', '6020-EP2292621A1', '6020-EP2292630A1', '6020-EP2295401A2', '6020-EP2295402A2', '6020-EP2295406A1', '6020-EP2295411A1', '6020-EP2295419A2', '6020-EP2295426A1', '6020-EP2295427A1', '6020-EP2295429A1', '6020-EP2295432A1', '6020-EP2295433A2', '6020-EP2295439A1', '6020-EP2295503A1', '6020-EP2295550A2', '6020-EP2297112A1', '6020-EP2298731A1', '6020-EP2298732A1', '6020-EP2298743A1', '6020-EP2298749A1', '6020-EP2298755A1', '6020-EP2298758A1', '6020-EP2298759A1', '6020-EP2298766A1', '6020-EP2298767A1', '6020-EP2298770A1', '6020-EP2298772A1', '6020-EP2298774A1', '6020-EP2298776A1', '6020-EP2298778A1', '6020-EP2299824A1', '6020-EP2301534A1', '6020-EP2301536A1', '6020-EP2301538A1', '6020-EP2301912A2', '6020-EP2301913A1', '6020-EP2301914A1', '6020-EP2301916A2', '6020-EP2301918A1', '6020-EP2301921A1', '6020-EP2301923A1', '6020-EP2301926A1', '6020-EP2301937A1', '6020-EP2302003A1', '6020-EP2305219A1', '6020-EP2305250A1', '6020-EP2305637A2', '6020-EP2305640A2', '6020-EP2305648A1', '6020-EP2305651A1', '6020-EP2305657A2', '6020-EP2305659A1', '6020-EP2305664A1', '6020-EP2305688A1', '6020-EP2305695A2', '6020-EP2305696A2', '6020-EP2305697A2', '6020-EP2305698A2', '6020-EP2308510A1', '6020-EP2308562A2', '6020-EP2308812A2', '6020-EP2308832A1', '6020-EP2308833A2', '6020-EP2308848A1', '6020-EP2308852A1', '6020-EP2308854A1', '6020-EP2308863A1', '6020-EP2308866A1', '6020-EP2308869A1', '6020-EP2308874A1', '6020-EP2308880A1', '6020-EP2311451A1', '6020-EP2311455A1', '6020-EP2311796A1', '6020-EP2311797A1', '6020-EP2311798A1', '6020-EP2311799A1', '6020-EP2311808A1', '6020-EP2311811A1', '6020-EP2311818A1', '6020-EP2311824A1', '6020-EP2311825A1', '6020-EP2311829A1', '6020-EP2311842A2', '6020-EP2314574A1', '6020-EP2314575A1', '6020-EP2314582A1', '6020-EP2314583A1', '6020-EP2314587A1', '6020-EP2315303A1', '6020-EP2316450A1', '6020-EP2316452A1', '6020-EP2316459A1', '6020-EP2316470A2', '6020-EP2316831A1', '6020-EP2316832A1', '6020-EP2316833A1', '6020-EP2316974A1', '6020-EP2371811A2', '6020-EP2371831A1', '6020-EP2372804A1', '6020-EP2378585A1', 'C00481', 'D78528', 'P-8110', '10198-EP2270010A1', '10198-EP2292593A2', '10198-EP2301536A1', '10198-EP2301538A1', '10198-EP2311455A1', '10198-EP2316452A1', '77216-EP2272846A1', '77216-EP2272972A1', '77216-EP2272973A1', '77216-EP2277872A1', '77216-EP2284149A1', '77216-EP2295439A1', '77216-EP2298749A1', '77216-EP2301536A1', '77216-EP2301923A1', '77216-EP2308849A1', '77216-EP2308850A1', '77216-EP2308866A1', '91656-EP2270008A1', '91656-EP2292227A2', '91656-EP2292617A1', '91656-EP2305668A1', '196393-EP2272973A1', '288P131', 'AC-907/25014006', 'Q408908', 'F2190-0642']
212;pyrrolidine-2,5-dione;-1;C4H5NO2;99.09;C1CC(=O)NC1=O;11439;336.6;;-68.3;;;;-12.6;-11.2;-11.3;;14.6;;;"['SUCCINIMIDE', '123-56-8', 'pyrrolidine-2,5-dione', '2,5-Pyrrolidinedione', 'Butanimide', 'Succinic acid imide', '2,5-Dioxopyrrolidine', '2,5-Diketopyrrolidine', 'Succinic imide', 'Succinimide-sauba', '3,4-Dihydropyrrole-2,5-dione', 'Dihydro-3-pyrroline-2,5-dione', '3,4-Dihydropyrrolidine', 'NSC 11204', 'SUCCIMIDE', 'UNII-10X90O3503', 'MFCD00005495', 'CHEBI:9307', '2,5-Pyrrolidinedione, homopolymer', 'Mercuric imidosuccinate', 'Mercury, disuccinimido-', 'WLN: T5VMVTJ', '2, mercury(2+) salt', '10X90O3503', 'Succinimide, mercury(2+) salt', '25950-42-9', '584-43-0', 'EINECS 204-635-6', 'BRN 0108440', 'succinimid', 'cis-succinimide', 'AI3-08539', 'Succinimide (SI)', '2,5dioxopyrrolidine', 'Lubrizol 6406', 'pyrroldine-2,5-dione', 'succinimide(butanimide)', 'ACMC-1BRIF', 'Succinimide pharbiol (TN)', 'EC 204-635-6', 'DSSTox_CID_30181', 'DSSTox_GSID_51629', '5-21-09-00438 (Beilstein Handbook Reference)', 'Maleimide-Related Compound 13', 'BDBM7814', 'CHEMBL275661', 'DTXSID8051629', 'EBD46423', 'NSC11204', 'NSC13114', 'NSC38417', 'NSC41221', 'NSC49152', 'ZINC5133396', 'Tox21_303851', 'BBL011626', 'NSC-11204', 'NSC-13114', 'NSC-38417', 'NSC-41221', 'NSC-49152', 'STL163344', 'AKOS000118776', 'DB13376', 'MCULE-8278049979', 'NCGC00357119-01', 'BP-21153', 'CAS-123-56-8', 'BB 0322715', 'FT-0658724', 'Succinimide, Vetec(TM) reagent grade, 98%', 'C07273', 'D08532', '21180-EP2269983A1', '21180-EP2269984A1', '21180-EP2277880A1', '21180-EP2284157A1', '21180-EP2292593A2', '21180-EP2292610A1', '21180-EP2301918A1', '21180-EP2305648A1', '21180-EP2305651A1', '21180-EP2305658A1', '21180-EP2305671A1', '21180-EP2305769A2', '21180-EP2308854A1', '21180-EP2311804A2', '21180-EP2311825A1', '21180-EP2314295A1', '21180-EP2314587A1', '21180-EP2371797A1', '21180-EP2371798A1', '21180-EP2371800A1', '21180-EP2371804A1', '150414-EP2281822A1', '150414-EP2284157A1', '150414-EP2289892A1', 'Q419430', 'Z57127349', 'F1908-0169', '1BBF5533-77F1-4B20-96F3-0BB022C36CD3', 'Succinic imide; Succinic acid imide; Butanimide; 2,5-Dioxopyrrolidine; 2,5-Diketopyrrolidine; 2,5-Pyrrolidinedione']"
213;2H-tetrazole;-1;CH2N4;70.05;C1=NNN=N1;67519;324.3;;-68.6;;;;-16.5;-13.4;-14.2;;8.2;;;"['1H-Tetrazole', 'Tetrazole', '288-94-8', '2H-Tetrazole', 'Tetraazacyclopentadiene', '1-H-Tetrazole', '100043-29-6', '1(H)-Tetrazole', '1H-1,2,3,4-Tetrazole', '2H-1,2,3,4-tetrazole', 'CHEBI:33193', 'MFCD00005247', 'Tetrazole solution, reagent grade, 3 wt. % in acetonitrile', '1tetrazole', 'racemic tetrazole', '1H-Tetraazole', '1H-tetrazol', '1H-Tetraazole #', 'NSC36712', 'EINECS 206-023-4', 'NSC 36712', '1,2,3,4-tetrazole', '1H-TETRAZOLE solution', 'ACMC-20m33s', 'UNII-D34J7PAT68', '1H-1,2,3,4-tetrazol', 'D34J7PAT68', 'Tetrazole;Tetraazacyclopentadiene', 'CHEMBL2148103', 'DTXSID5075280', 'alpha-1H-1,2,3,4-tetrazole', 'CHEBI:33194', 'AMY28702', 'BCP22123', 'CS-D1473', 'ZINC8251268', 'AC-784', 'BBL023228', 'NSC-36712', 'STK366101', 'AKOS003615496', 'AKOS015955446', '[1H-Tetrazole-5(4H)-ylidene]radical', '1H-Tetrazole, 0.45M in acetonitrile', 'MCULE-5933021454', '1H-Tetrazole (0.45M in Acetonitrile)', 'BP-30175', 'AB0052650', 'DB-000385', 'FT-0607796', 'FT-0607914', 'T1017', 'Tetrazole solution, Vetec(TM) reagent grade', 'T-2400', 'T-2440', 'A819654', 'Q58826308', 'Q58826418', 'Tetrazole 0.25M in Acetonitrile (activator solution)', 'F8889-0313', 'Tetrazole solution, for DNA synthesis, filtered through a 1 mum filter, ~0.45 M in acetonitrile', 'Tetrazole solution, for DNA synthesis, filtered through a 1 um filter, 0.40 M in acetonitrile']"
214;2,2,2-trifluoroacetamide;-1;C2H2F3NO;113.04;C(=O)(C(F)(F)F)N;67717;338.2;;-65.0;;;;-11.3;-8.4;-8.9;;17.2;;;['Trifluoroacetamide', '2,2,2-Trifluoroacetamide', '354-38-1', 'Acetamide, 2,2,2-trifluoro-', 'UNII-36MU16BYFK', '2,2,2-Trifluoro-acetamide', 'N-trifluoroacetamide', 'MFCD00008008', '36MU16BYFK', 'C2H2F3NO', 'trifluroacetamide', 'trifluoro-acetamide', 'NSC 9449', 'EINECS 206-559-9', '2,2-Trifluoroacetamide', 'ACMC-1CJKM', 'AI3-52681', 'CF3CONH2', 'Trifluoroacetamide, 97%', 'SCHEMBL142', '2,2,2 trifluoroacetamide', 'EC 206-559-9', '2,2,2-trifluoro acetamide', 'CHEMBL117012', 'DTXSID1059868', 'TRIFLUOROACETAMIDINE,TECH.', 'AMY3625', 'DTXSID10893884', 'NSC9449', 'NSC-9449', 'ZINC3861120', 'BBL027671', 'BDBM50226184', 'STL146458', 'AKOS005207149', 'CS-W018487', 'EBD2222850', 'LS40728', 'MCULE-5736855180', 'Perfluoroalkyl (linear) amides (primary)', 'I135', 'DB-048810', 'FT-0609032', 'T0598', 'EN300-19421', 'D71062', '12790-EP2275469A1', '12790-EP2277881A1', '12790-EP2280008A2', '12790-EP2287940A1', '12790-EP2289965A1', '12790-EP2295402A2', '12790-EP2298828A1', '12790-EP2301983A1', '12790-EP2314590A1', '12790-EP2316831A1', '12790-EP2316836A1', '101143-EP2302382A2', '101143-EP2302383A2', 'A822807', 'Q-200152', 'Q27256578', 'F0001-1023']