Number;IUPAC_name;Charge;Molecular Formula;Molecular Weight [g/mol];Isomeric SMILES;Pubchem CID;GasPhaseAcidity_B2PLYP//DLPNO-CCSD(T) [kcal/mol];GSolv_Ion_Water [kcal/mol];GSolv_Ion_DMSO [kcal/mol];GSolv_Ion_Acetonitrile [kcal/mol];GSolv_Ion_MeOH [kcal/mol];Gsolv_Neutral_Water_exp [kcal/mol];Gsolv_Neutral_DMSO_TZVPD-Fine [kcal/mol];Gsolv_Neutral_Acetonitrile_TZVPD-Fine [kcal/mol];Gsolv_Neutral_MeOH_TZVPD-Fine [kcal/mol];pka_water;pka_DMSO;pka_Acetonitrile;pka_MeOH;Synonyms
149;2-hydroxybenzoic acid;-1;C7H6O3;138.12;C1=CC=C(C(=C1)C(=O)O)O;338;318.1;;;-46.6;-58.8;;-14.7;-12.2;-12.6;;;16.7;8;"['salicylic acid', '2-Hydroxybenzoic acid', '69-72-7', 'o-hydroxybenzoic acid', '2-Carboxyphenol', 'o-Carboxyphenol', 'Rutranex', 'Salonil', 'Retarder W', 'Keralyt', 'Duoplant', 'Freezone', 'Saligel', 'Ionil', 'Psoriacid-S-stift', 'Benzoic acid, 2-hydroxy-', 'Stri-Dex', 'Salicylic acid soap', 'Salicylic acid collodion', 'Verrugon', 'Phenol-2-carboxylic acid', 'Acidum salicylicum', 'Trans-Ver-Sal', 'Orthohydroxybenzoic acid', '2-Hydroxybenzenecarboxylic acid', 'Acido salicilico', 'Ionil-Plus', 'Salicylic acid, tech.', 'Kyselina salicylova', 'Clear away wart remover', 'Duofil wart remover', 'Domerine', 'Sebucare', 'Duofilm', 'Sebulex', 'Salicyclic acid', 'Ionil plus', ""Dr. Scholl's corn removers"", 'Kyselina salicylova [Czech]', ""Dr. Scholl's callus removers"", ""Dr. Scholl's wart remover kit"", 'Kyselina 2-hydroxybenzoova', 'Occlusal', 'Acido salicilico [Italian]', 'Advanced pain relief corn removers', 'Caswell No. 731', '2-hydroxy-benzoic acid', 'Kyselina 2-hydroxybenzoova [Czech]', 'Advanced pain relief callus removers', 'Acido o-idrossibenzoico [Italian]', 'NSC 180', 'Salicylic acid & Sulfur Soap', 'CCRIS 6714', 'HSDB 672', 'AI3-02407', 'UNII-O414PZ4LPZ', 'MFCD00002439', 'EPA Pesticide Chemical Code 076602', 'BRN 0774890', 'CHEBI:16914', 'CHEMBL424', 'O414PZ4LPZ', 'MLS000069653', 'NSC180', 'Salicylic acid inclusion complex', 'K 537', 'NSC-180', 'ATA fraction 10, ammonium salt', 'NCGC00159447-05', 'SMR000059163', 'Mediplast pads', 'Akurza Lotion', 'Hydrisalic Gel', 'Akurza Cream', 'Salex Lotion', 'Salex Cream', 'DSSTox_CID_6368', 'DuoPlant Gel', 'DHS Sal Shampoo', 'DSSTox_RID_78106', 'P&S Shampoo', 'DSSTox_GSID_26368', 'Salicylic acid [USAN:JAN]', 'Acido o-idrossibenzoico', 'Durasal', 'salicylicum acidum', 'CAS-69-72-7', 'Propa pH Peel-Off Acne Mask', 'NSC629474', 'phenol derivative, 7', 'Salicylic acid (TN)', 'Benzoic acid, 2-hydroxy-, ion(1-)', 'EINECS 200-712-3', 'Salicylic acid [USP:JAN]', 'Azurechelin', 'Salicylic acid (6CI,8CI)', 'salicylic-acid', 'Anti-blemish', 'Salicylic acid rs', 'hydroxy-benzoic acid', 'ortho-salicylic acid', 'CMC_13852', 'Fostex (Salt/Mix)', 'Pernox (Salt/Mix)', 'Duofilm Wart Remover', 'Phenol-2-carboxylate', 'Duofilm (Salt/Mix)', 'Salicylic Acid,(S)', 'Sebulex (Salt/Mix)', '2-hydroxobenzoic acid', 'Domerine (Salt/Mix)', 'Sebucare (Salt/Mix)', '2-Hydroxybenzoate, I', 'Natural Salicylic Acid', 'o-hydroxy benzoic acid', '2-hydroxy benzoic acid', 'Spectrum_000948', 'ACMC-1AZIK', 'Opera_ID_582', 'Salicylic acid ACS grade', 'WLN: QVR BQ', 'Benzoic acid, o-hydroxy-', 'Bazuka Extra Strength Gel', '2-Hydroxybenzenecarboxylate', 'bmse000252', 'Epitope ID:124929', 'Retarder SAX (Salt/Mix)', 'UPCMLD-DP126', 'EC 200-712-3', 'SCHEMBL1967', 'Oprea1_040343', 'KBioSS_001428', 'BIDD:ER0602', 'DivK1c_000301', 'Salicylic acid (JP17/USP)', '2-Hydroxybenzoic Acid, Natural', 'FEMA3985', 'GTPL4306', 'SGCUT00012', 'ZINC1554', 'Salicylic acid, >=99%, FG', 'Salicylic acid, LR, >=99%', 'component of Tinver (Salt/Mix)', 'DTXSID7026368', 'FEMA NO. 3985', 'UPCMLD-DP126:001', 'BDBM26193', 'component of Keralyt (Salt/Mix)', 'KBio1_000301', 'KBio2_001428', 'KBio2_003996', 'KBio2_006564', 'Alpha/Beta Hydroxy Acids (Glycolic Acid, Salicylic Acid)', 'E9A559BE-383B-4F83-BC02-3031D03D558A', 'NINDS_000301', 'HMS2233A10', 'HMS3373M19', 'HMS3885B08', 'KUC106694N', 'Salicylic acid, p.a., 99.0%', 'Benzoic acid, 2-hydroxy- (9CI)', 'BCP09067', 'HY-B0167', 'to_000004', 'Lamivudine impurity, salicylic acid-', 'Tox21_113453', 'Tox21_201471', 'Tox21_303109', 's4539', 'STK258681', 'AKOS000118979', 'Salicylic acid, BioXtra, >=99.0%', 'CCG-212792', 'DB00936', 'MCULE-8407868694', 'IDI1_000301', 'SMP2_000145', 'NCGC00159447-01', 'NCGC00159447-02', 'NCGC00159447-04', 'NCGC00159447-06', 'NCGC00257065-01', 'NCGC00259022-01', 'BP-12826', 'KSC-11-207-4', 'Lamivudine related compound salicylic acid', 'Salicylic acid & Sulfur Soap (Salt/Mix)', 'Salicylic acid, ACS reagent, >=99.0%', 'Salicylic acid, plant cell culture tested', 'Salicylic acid, ReagentPlus(R), >=99%', 'TS-03583', 'Salicylic Acid 1.0 mg/ml in Acetonitrile', 'SBI-0051510.P003', 'FT-0645123', 'FT-0674502', 'FT-0674503', 'H0206', 'H1342', 'Salicylic acid, tested according to Ph.Eur.', 'Salicylic acid, SAJ first grade, >=99.0%', '3253-EP2269610A2', '3253-EP2269988A2', '3253-EP2270002A1', '3253-EP2270006A1', '3253-EP2270008A1', '3253-EP2270011A1', '3253-EP2270113A1', '3253-EP2272935A1', '3253-EP2275401A1', '3253-EP2275413A1', '3253-EP2275420A1', '3253-EP2277867A2', '3253-EP2280003A2', '3253-EP2280008A2', '3253-EP2280010A2', '3253-EP2281563A1', '3253-EP2281816A1', '3253-EP2284146A2', '3253-EP2284147A2', '3253-EP2284160A1', '3253-EP2284178A2', '3253-EP2284179A2', '3253-EP2287156A1', '3253-EP2289510A1', '3253-EP2289883A1', '3253-EP2289890A1', '3253-EP2292592A1', '3253-EP2292597A1', '3253-EP2292617A1', '3253-EP2295053A1', '3253-EP2295401A2', '3253-EP2295416A2', '3253-EP2295424A1', '3253-EP2295433A2', '3253-EP2298734A2', '3253-EP2298735A1', '3253-EP2298748A2', '3253-EP2298757A2', '3253-EP2298758A1', '3253-EP2298759A1', '3253-EP2298764A1', '3253-EP2298765A1', '3253-EP2301931A1', '3253-EP2301937A1', '3253-EP2301940A1', '3253-EP2305243A1', '3253-EP2305248A1', '3253-EP2305257A1', '3253-EP2305646A1', '3253-EP2305651A1', '3253-EP2305655A2', '3253-EP2305662A1', '3253-EP2305663A1', '3253-EP2305664A1', '3253-EP2305675A1', '3253-EP2308851A1', '3253-EP2308854A1', '3253-EP2308873A1', '3253-EP2308875A1', '3253-EP2311807A1', '3253-EP2311809A1', '3253-EP2311810A1', '3253-EP2311814A1', '3253-EP2311831A1', '3253-EP2311842A2', '3253-EP2314574A1', '3253-EP2314588A1', '3253-EP2316457A1', '3253-EP2316458A1', '3253-EP2316459A1', '3253-EP2316825A1', '3253-EP2316826A1', '3253-EP2316827A1', '3253-EP2316828A1', '3253-EP2316836A1', '3253-EP2372017A1', '3253-EP2380874A2', 'C00805', 'D00097', 'D70842', 'Salicylic acid, Vetec(TM) reagent grade, 98%', '44642-EP2281819A1', '44642-EP2292619A1', '44642-EP2305659A1', '44642-EP2311818A1', 'AB00489876_15', 'BENZOIC ACID,2-HYDROXY   SALICYLIC ACID', 'Salicylic acid, puriss. p.a., >=99.0% (T)', '197900-EP2269975A2', '197900-EP2269997A2', '197900-EP2275415A2', 'Q193572', 'component of Solarcaine first aid spray (Salt/Mix)', 'J-509667', 'component of Fostex medicated bar and cream (Salt/Mix)', 'F2191-0216', 'Salicylic acid, certified reference material, TraceCERT(R)', 'UNII-I3P9R8317T component YGSDEFSMJLZEOE-UHFFFAOYSA-N', 'Salicylic acid, British Pharmacopoeia (BP) Reference Standard', 'Salicylic acid, European Pharmacopoeia (EP) Reference Standard', 'Salicylic acid, United States Pharmacopeia (USP) Reference Standard', 'Salicylic acid, 1.0 mg/mL in acetonitrile, ampule of 1 mL, certified reference material', 'Salicylic acid, Pharmaceutical Secondary Standard; Certified Reference Material', '8052-31-1', 'Salicylic acid, meets analytical specification of Ph. Eur., BP, USP, 99.5-100.5% (calc. to the dried substance)']"
150;1,3-dihydroinden-2-one;-1;C9H8O;132.16;C1C(=O)CC2=CC=CC=C21;11983;342.8;;-66.9;;;;-8.4;-8.8;-8.3;;17;;;"['2-INDANONE', '615-13-4', 'Indan-2-one', '1h-inden-2(3h)-one', '1,3-Dihydro-2H-inden-2-one', '2H-Inden-2-one, 1,3-dihydro-', 'beta-Hydrindone', '1,3-dihydroinden-2-one', '2-Oxoindane', 'UNII-0I79N673DE', 'MFCD00003792', 'CHEMBL195557', 'CHEBI:27930', '0I79N673DE', '4-07-00-01002 (Beilstein Handbook Reference)', 'EINECS 210-410-3', 'BRN 0636550', 'AI3-39163', '2,3-dihydro-1H-inden-2-one', '2-lndanone', 'A-Hydrindone?', '.beta.-Hydrindone', 'indan-2-on', '2-Indanone;', '2-Indanone, 98%', 'ACMC-1BGA4', 'bmse000514', '1,3-dihydro-inden-2-one', 'DSSTox_CID_30860', 'DSSTox_GSID_52288', 'SCHEMBL77106', 'DTXSID7052288', 'AMY5313', 'ZINC897211', 'Tox21_304008', 'AC-530', 'BDBM50168003', 'AKOS000120641', 'ACN-030558', 'CS-W020518', 'MCULE-7616598839', 'NCGC00357223-01', 'AS-11788', 'CAS-615-13-4', 'SY001481', 'DB-003899', '2-Indanone, Vetec(TM) reagent grade, 98%', 'FT-0612646', 'I0649', 'EN300-21015', 'C07727', 'F10966', 'A833275', 'W-105145', 'Q15906443', 'F0001-1623']"
151;2-methoxyacetamide;-1;C3H7NO2;89.09;COCC(=O)N;140060;358.3;;-74.7;;;;-10.0;-9.0;-9.8;;23.9;;;['2-Methoxyacetamide', '16332-06-2', 'Acetamide, 2-methoxy-', 'METHOXYACETAMIDE', 'ACETAMIDE,2-METHOXY-', '2-Methoxy-acetamide', 'Acetamide, 2-methoxy-,', 'methoxy acetamide', 'NSC91483', 'ACETAMIDE,N-METHOXY-', 'CHEMBL170742', 'DTXSID80167569', 'ZINC1592381', 'BDBM50224835', 'MFCD00025517', 'NSC 91483', 'NSC-91483', 'AKOS001076198', 'MCULE-6674958132', 'DS-006220', 'EN300-15623', 'F20983', 'A902708', 'F1913-0020']
152;naphthalen-2-ol;-1;C10H8O;144.17;C1=CC=C2C=C(C=CC2=C1)O;8663;336.9;;-66.4;;;;-13.9;-12.0;-12.3;;17.1;;;['2-NAPHTHOL', 'naphthalen-2-ol', '135-19-3', '2-Naphthalenol', 'beta-naphthol', 'Betanaphthol', '2-Hydroxynaphthalene', 'Isonaphthol', 'Developer BN', 'Naphthol B', '2-Naphtol', 'Azogen developer A', 'beta-Naphtol', 'beta-Napthol', 'Developer A', 'Developer AMS', 'beta-Hydroxynaphthalene', '2-Naftolo', '2-Naftol', 'Developer sodium', 'C.I. Developer 5', 'beta-Naphthyl alcohol', 'beta-Monoxynaphthalene', 'beta-Naftol', 'beta-Naftolo', 'beta-Naphthyl hydroxide', 'NAPHTHOL, BETA', '.beta.-Naphthol', 'C.I. Azoic Coupling Component 1', 'Antioxygene BN', 'UNII-P2Z71CIK5H', '.beta.-Naftolo', '.beta.-Naphtol', '.beta.-Napthol', '.beta.-Naftol', 'NSC 2044', 'C.I. 37500', 'MFCD00004067', '.beta.-Naphthyl alcohol', '.beta.-Monoxynaphthalene', '.beta.-Hydroxynaphthalene', '.beta.-Naphthyl hydroxide', '2-Naphthalenol, homopolymer', 'P2Z71CIK5H', 'CHEMBL14126', 'CHEBI:10432', 'DSSTox_CID_7061', 'DSSTox_RID_78296', 'DSSTox_GSID_27061', '2-Naftol [Dutch]', 'beta-Naftol [Dutch]', '2-Naphtol [French]', 'Caswell No. 590', '2-Naftolo [Italian]', 'beta-Naphtol [German]', 'beta-Naftolo [Italian]', '2-Napththol', '26716-78-9', 'CAS-135-19-3', 'Betanaphthol [NF]', 'HSDB 6812', 'EINECS 205-182-7', 'EPA Pesticide Chemical Code 010301', 'Hydronaphthol', 'AI3-00081', '2-napthol', 'napthalen-2-ol', '2-naphthylalcohol', 'naphth-2-ol', 'Naphthol AS-PTR', 'Naphthol, .beta.', '03V', 'EINECS 215-322-9', '2-hydroxy naphthalene', '2-Naphthol, Reagent', '2-Naphthol, Purified', 'BRN 1817321', '2-Naphthol, 98%', '2-Naphthol, 99%', 'Naphth-2-ol, 10', 'beta.-hydroxynaphthalene', 'Microcidin (Salt/Mix)', 'ACMC-1CUIO', '2-Naphthol, 98.5%', 'EC 205-182-7', 'SCHEMBL28781', 'WLN: L66J CQ', '2-Naphthol(Flakes or Chunks)', 'SGCUT00131', '2-Naphthol, LR, >=98%', 'DTXSID5027061', 'Naphthalen-2-ol (beta-Naphthol)', 'NSC2044', '4b32', 'Sodium 2-naphthoxide (Salt/Mix)', 'HMS3264N15', 'Pharmakon1600-01504501', 'ZINC967928', 'HY-Y0110', 'NSC-2044', 'to_000010', 'Tox21_201884', 'Tox21_303038', 'BDBM50159250', 'NSC758883', 's6035', 'STL281866', 'AKOS000119842', 'AM86551', 'CCG-213932', 'HR-0304', 'MCULE-2675031485', 'NSC-758883', '2-Naphthol, purum, >=98.0% (GC)', 'NCGC00249132-01', 'NCGC00257077-01', 'NCGC00259433-01', 'AC-10464', 'I980', '2-Naphthol, BioXtra, >=99.0% (GC)', 'SBI-0207084.P001', '2-Naphthol, SAJ first grade, >=98.0%', 'CS-0008403', 'FT-0613121', 'N0027', '2-Naphthol, fluorescence indicator, >=99.0%', 'D86186', 'AB01314260_03', '3-ETHYL-5-METHYLISOXAZOLE-4-CARBOXYLICACID', '4-06-00-04208 (Beilstein Handbook Reference)', 'A806896', 'AB-131/40299865', 'Q949232', 'SR-01000872753', 'Q-200736', 'SR-01000872753-1', 'BRD-K21164796-001-01-0', 'Z57127515', 'F0001-0455']
153;2-nitrobenzoic acid;-1;C7H5NO4;167.12;C1=CC=C(C(=C1)C(=O)O)[N+](=O)[O-];11087;324.0;;-68.8;-52.6;-66.8;;-17.0;-14.5;-14.3;;8.2;18.2;7.7;['2-NITROBENZOIC ACID', '552-16-9', 'o-Nitrobenzoic acid', 'Benzoic acid, 2-nitro-', '2-nitrobenzoicacid', 'o-Carboxynitrobenzene', 'Benzoic acid, o-nitro-', '2-nitro-benzoic acid', 'Nitrobenzoic acid', 'ortho-nitrobenzoic acid', '2-nitro benzoic acid', 'MFCD00007137', 'UNII-S6S4653K7Z', 'CHEBI:25620', 'S6S4653K7Z', 'CCRIS 2334', 'NSC 9576', 'EINECS 209-004-9', 'AI3-08821', 'nitro benzoic acid', '2-nitro-benzoicaci', '6-nitro-benzoic acid', 'ACMC-1ASVT', 'DSSTox_CID_5738', '2-Nitrobenzoic acid, 95%', 'DSSTox_RID_77900', 'DSSTox_GSID_25738', 'Oprea1_474365', 'SCHEMBL78205', 'CHEMBL114719', 'DTXSID5025738', 'SCHEMBL17461588', 'ZINC80841', 'NSC9576', 'NSC-9576', 'Tox21_201020', 'AC-652', 'BBL019769', 'STL168882', 'AKOS000119255', 'AM87062', 'AS04600', 'CS-W020072', 'MCULE-3357987129', 'NCGC00091364-01', 'NCGC00091364-02', 'NCGC00258573-01', 'AS-11055', 'CAS-552-16-9', 'SY005662', 'DB-024127', 'FT-0650584', 'N0155', '52N169', 'BENZOIC ACID,2-NITRO  MFC7 H5 N1 O4', 'D71183', '2-Nitrobenzoic acid, purum, >=97.0% (HPLC)', '2-Nitrobenzoic acid, technical, >=85% (HPLC)', '31520-EP2270010A1', '31520-EP2308858A1', '31520-EP2311816A1', '31520-EP2311817A1', '92692-EP2277869A1', '92692-EP2277870A1', '92692-EP2305649A1', 'AB-131/40245354', '2-Nitrobenzoic acid, Vetec(TM) reagent grade, 94%', 'Q-200311', 'Q19810380', 'Z57160141', '2-Nitrobenzoic acid, 95%, Contains 3- and 4-isomers', 'F3096-1719']
154;2-nitropropane;-1;C3H7NO2;89.09;CC(C)[N+](=O)[O-];398;351.8;;-73.1;;;;-5.4;-5.8;-5.0;;16.9;;;['2-nitropropane', '79-46-9', 'Propane, 2-nitro-', 'Isonitropropane', 'Dimethylnitromethane', 'Nitroisopropane', 'sec-Nitropropane', 'Nipar S-20', 'beta-Nitropropane', '2-Nitro-propane', 'Nipar S-20 solvent', 'Nipar S-30 solvent', 'RCRA waste number U171', 'Isonitro propane', 'UNII-GKV234L2QH', 'NSC 5369', 'i-C3H7NO2', 'GKV234L2QH', 'CHEBI:16037', 'CCRIS 453', 'HSDB 1134', 'EINECS 201-209-1', 'RCRA waste no. U171', 'AI3-00109', '2-nitro propane', '.beta.-Nitropropane', 'nipar s-30', 'ACMC-209phj', 'DSSTox_CID_981', 'EC 201-209-1', '2-Nitropropane, >=96%', 'DSSTox_RID_75903', 'DSSTox_GSID_20981', 'Ex173', 'WLN: WNY1&1', 'CHEMBL261886', 'DTXSID6020981', 'NSC5369', 'AMY25784', 'NSC-5369', 'ZINC5167659', 'Tox21_200365', 'BBL011484', 'c0555', 'MFCD00007397', 'STL146596', 'AKOS000119973', 'MCULE-8418443353', 'CAS-79-46-9', 'NCGC00091337-01', 'NCGC00091337-02', 'NCGC00257919-01', 'FT-0613216', 'N0249', 'AZ0001-0079', 'C02116', 'D95323', 'L001273', 'Q209453', 'J-510180', 'F0001-2080']
155;2-tert-butylphenol;-1;C10H14O;150.22;CC(C)(C)C1=CC=CC=C1O;6923;;;;;;;-11.4;-10.1;-10.4;;;;16.5;['2-TERT-BUTYLPHENOL', '88-18-6', '2-(tert-butyl)phenol', '2-t-Butylphenol', 'Phenol, 2-(1,1-dimethylethyl)-', 'Phenol, o-tert-butyl-', 'o-t-Butylphenol', 'TERT-BUTYLPHENOL', 'o-tert-Butylphenol', '2-(1,1-Dimethylethyl)phenol', '2-tert-Butyl-1-hydroxybenzene', 't-Butylphenol', 'UNII-NL2FPV3N0Z', 'Phenol, o-(tert-butyl)-', '2-tert-Butyl-phenol', 'ortho-tert-butylphenol', 'NL2FPV3N0Z', '27178-34-3', 'CHEBI:34305', 'MFCD00002223', 'DSSTox_CID_6525', 'DSSTox_RID_78136', 'DSSTox_GSID_26525', 'CAS-88-18-6', 'CCRIS 5825', 'HSDB 5255', 'Benzene, 1-tert-butyl-2-hydroxy-', 'EINECS 201-807-2', 'BRN 1907120', 'AI3-26292', 't-butyl phenol', '2-tertbutylphenol', 'tert-butyl phenol', 'tert.-butylphenol', 'tertiarybutylphenol', '2-t-butyl phenol', '2-t-butyl-phenol', '2-tert butylphenol', 'ortho-t-butylphenol', 'tertiary butylphenol', 'EINECS 248-300-2', 'o-tert-butyl phenol', 'Ortho-tertbutylphenol', '2-tert-butyl phenol', 'o-(t-butyl)-phenol', 'o-tert.-butyl-phenol', '2-tertiary-butylphenol', 'ACMC-209qrm', 'Phenol, 2-tert-butyl-', '2-t-butyl-hydroxybenzene', 'ortho-tertiary-butyl phenol', 'EC 201-807-2', '2-tert-Butylphenol, 99%', 'SCHEMBL51803', '4-06-00-03292 (Beilstein Handbook Reference)', 'MLS001055450', 'BIDD:ER0653', 'CHEMBL108851', '2-(1,1-dimethylethyl)-phenol', 'DTXSID2026525', 'HMS3039I16', 'ZINC2012739', 'Tox21_202041', 'Tox21_300011', 'AKOS000120754', 'MCULE-7534044065', 'NCGC00090990-01', 'NCGC00090990-02', 'NCGC00090990-03', 'NCGC00090990-04', 'NCGC00254125-01', 'NCGC00259590-01', 'L341', 'LS-13818', 'SMR000686063', 'B0734', 'FT-0613430', 'J-510332', 'Q27115979', '1-TERT.BUTYL,2-HYDRXY-BENZENE  (1-TERT.BUTYL-PHENOL)']
156;3,4,5-trichlorophenol;-1;C6H3Cl3O;197.4;C1=C(C=C(C(=C1Cl)Cl)Cl)O;11859;324.5;;;-45.2;;;-14.6;-12.4;-12.8;;;22.5;;['3,4,5-TRICHLOROPHENOL', '609-19-8', 'Phenol, 3,4,5-trichloro-', 'UNII-2JF54EGE7O', '2JF54EGE7O', '3,4,5-tris(chloranyl)phenol', 'MLS002302993', 'SMR001307309', 'HSDB 6292', 'CCRIS 6110', '3,4,5-trichlorphenol', 'EINECS 210-183-0', 'NSC 243667', '3,5-Trichlorophenol', 'DSSTox_CID_6212', 'WLN: QR CG DG EG', 'DSSTox_RID_78061', 'DSSTox_GSID_26212', 'cid_11859', 'SCHEMBL330705', 'CHEMBL1484480', 'DTXSID4026212', 'BDBM91350', 'GBNHEBQXJVDXSW-UHFFFAOYSA-', 'HMS3039M04', 'AMY28145', 'ZINC1764636', 'Tox21_200188', 'MFCD00130143', 'NSC243667', 'AKOS006275453', 'DS-5129', 'NSC-243667', 'NCGC00091866-01', 'NCGC00091866-02', 'NCGC00257742-01', 'CAS-609-19-8', 'FT-0648040', 'F16449', '3,4,5-Trichlorophenol 10 microg/mL in Isooctane', 'A832955', 'A928575', '3,4,5-Trichlorophenol 100 microg/mL in Acetonitrile', 'Q27254825', 'UNII-8Z4R9J59DL component GBNHEBQXJVDXSW-UHFFFAOYSA-N']
157;3,4-dimethylbenzoic acid;-1;C9H10O2;150.17;CC1=C(C=C(C=C1)C(=O)O)C;12073;;;;;;;-13.0;-11.4;-11.8;;11.4;21.2;9.7;['3,4-DIMETHYLBENZOIC ACID', '619-04-5', 'Benzoic acid, 3,4-dimethyl-', '3,4-DiMethyl-Benzoic Acid', '1-Carboxy-3,4-dimethylbenzene', 'o-Xylene-4-carboxylic Acid', 'MFCD00002524', 'UNII-Z2TCZ088AV', 'Z2TCZ088AV', 'BRN 0907267', 'EINECS 210-576-7', '3,4-dimethyl benzoic acid', 'ASYM-O-XYLYLIC ACID', 'ACMC-1B5P1', '3, 4 dimethyl benzoic acid', '4-09-00-01803 (Beilstein Handbook Reference)', 'SCHEMBL310259', 'PARAGOS 440018', 'RARECHEM AL BO 0330', 'DTXSID5060693', 'CHEBI:64818', 'OPVAJFQBSDUNQA-UHFFFAOYSA-', 'TIMTEC-BB SBB043550', 'ZINC98166', '3,4-Dimethylbenzoic acid, 98%', 'OTAVA-BB 1312864', 'AKOS BBS-00007820', 'BENZOIC ACID, 3,4-DIMETHYL', 'AKOS A1230-3213', 'LABOTEST-BB LT01148418', 'LABOTEST-BB LT03333428', 'STL169575', 'AKOS000120463', 'AC-8956', 'AM10821', 'AS00741', 'CS-W018150', 'DS-1853', 'FS-2351', 'HY-W017434', 'MCULE-1098895004', 'NCGC00338539-01', 'SY001153', 'AB0010805', 'D1439', 'FT-0614372', 'AB01331517-02', 'AE-562/40207816', 'W-105082', 'Q27133457', 'F3098-0374', 'Z235363085']