Number;IUPAC_name;Charge;Molecular Formula;Molecular Weight [g/mol];Isomeric SMILES;Pubchem CID;GasPhaseAcidity_B2PLYP//DLPNO-CCSD(T) [kcal/mol];GSolv_Ion_Water [kcal/mol];GSolv_Ion_DMSO [kcal/mol];GSolv_Ion_Acetonitrile [kcal/mol];GSolv_Ion_MeOH [kcal/mol];Gsolv_Neutral_Water_exp [kcal/mol];Gsolv_Neutral_DMSO_TZVPD-Fine [kcal/mol];Gsolv_Neutral_Acetonitrile_TZVPD-Fine [kcal/mol];Gsolv_Neutral_MeOH_TZVPD-Fine [kcal/mol];pka_water;pka_DMSO;pka_Acetonitrile;pka_MeOH;Synonyms
55;benzoic acid;-1;C7H6O2;122.12;C1=CC=C(C=C1)C(=O)O;243;333.6;-74.8;-69.8;-54.5;-70.4;-7.9;-12.2;-10.2;-10.6;4.2;11;20.7;9.4;"['benzoic acid', '65-85-0', 'Dracylic acid', 'benzenecarboxylic acid', 'Carboxybenzene', 'Benzeneformic acid', 'phenylformic acid', 'Benzenemethanoic acid', 'Phenylcarboxylic acid', 'Retardex', 'Benzoesaeure GK', 'Benzoesaeure GV', 'Retarder BA', 'Tenn-Plas', 'Acide benzoique', 'Salvo liquid', 'Solvo powder', 'Benzoesaeure', 'Flowers of benzoin', 'Flowers of benjamin', 'Benzoic acid, tech.', 'Unisept BZA', 'HA 1 (acid)', 'Kyselina benzoova', 'Benzoic acid (natural)', 'Benzoate (VAN)', 'HA 1', 'Benzoesaeure [German]', 'Caswell No. 081', 'Diacylic acid', 'Oracylic acid', 'Acide benzoique [French]', 'Acido benzoico [Italian]', 'Benzenemethonic acid', 'Kyselina benzoova [Czech]', 'NSC 149', 'E 210', 'FEMA No. 2131', 'CCRIS 1893', 'Diacylate', 'HSDB 704', 'UNII-8SKN0B0MIM', 'AI3-0310', 'Salvo, liquid', 'Solvo, powder', 'AI3-03710', 'phenyl formic acid', 'EPA Pesticide Chemical Code 009101', 'Benzoic acid Natural', 'E210', 'CHEBI:30746', 'Aromatic carboxylic acid', 'MFCD00002398', '8SKN0B0MIM', 'Benzeneformate', 'Phenylformate', 'Benzenemethanoate', 'Phenylcarboxylate', 'Benzenecarboxylate', 'DSSTox_CID_143', 'DSSTox_RID_75396', 'DSSTox_GSID_20143', 'Acido benzoico', 'Benzoic-2,3,4,5,6-d5 acid', 'Carboxypolystyrene', 'Benzoic acid [USAN:JAN]', 'CAS-65-85-0', 'NSC7918', 'Benzoic acid (TN)', 'EINECS 200-618-2', 'Benzoic acid [USP:JAN]', 'phenylcarboxy', 'Dracylate', 'benzoic aicd', 'benzoic-acid', 'bezoic acid', 'Aromatic acid', 'benzenecarboxylic', 'Salvo powder', 'benzoic- acid', 'Retarder BAX', '1gyx', '1kqb', 'Benzoic Acid USP', 'Sodium benzoic acid', 'Benzoic Acid,(S)', 'Natural Benzoic Acid', 'Benzoic acid solution', 'BENZOICACID-D5', 'Benzoic acid-[13C7]', 'WLN: QVR', 'benzene-2-carboxylic acid', 'Benzoic Acid-[18O2]', 'Benzoic acid, ACS reagent', 'bmse000300', 'CHEMBL541', 'Epitope ID:139965', 'EC 200-618-2', 'SCHEMBL1378', 'ACMC-1BI02', 'SAMPL4, O1', 'Benzoic acid (JP17/USP)', 'MLS002415717', 'BIDD:ER0597', 'Benzoic acid, AR, >=99%', 'Benzoic acid, LR, >=99%', 'NSC149', 'ZINC1011', 'DTXSID6020143', 'FEMA 2131', 'Benzoic acid (7CI,8CI,9CI)', 'Benzoic acid, analytical standard', 'Benzoic acid, p.a., 99.5%', 'NSC-149', 'BDBM197302', 'HMS2092F18', 'HMS2267D03', 'HMS3652B03', 'Pharmakon1600-01503001', 'HY-N0216', 'Tox21_202403', 'Tox21_300180', 'NSC758203', 's4161', 'STK301730', 'Benzoic acid, ReagentPlus(R), 99%', 'AKOS000119619', 'AS04617', 'BS-3752', 'CCG-213088', 'DB03793', 'LS41489', 'MCULE-4467353796', 'NSC-758203', 'Benzoic acid 100 microg/mL in Acetone', 'Benzoic acid, >=99.5%, FCC, FG', 'Benzoic acid, ACS reagent, >=99.5%', 'NCGC00091886-01', 'NCGC00091886-02', 'NCGC00091886-03', 'NCGC00254112-01', 'NCGC00259952-01', 'Benzoic acid, USP, 99.5-100.5%', 'BP-30148', 'K073', 'SMR001252220', 'SY009192', 'Benzoic acid, tested according to Ph.Eur.', 'SBI-0206720.P001', 'Benzoic acid, SAJ first grade, >=99.5%', 'DB-029471', '606-EP2269610A2', '606-EP2269988A2', '606-EP2270002A1', '606-EP2270006A1', '606-EP2270008A1', '606-EP2270009A1', '606-EP2270010A1', '606-EP2270011A1', '606-EP2270114A1', '606-EP2272822A1', '606-EP2272827A1', '606-EP2272848A1', '606-EP2274983A1', '606-EP2275105A1', '606-EP2275401A1', '606-EP2275413A1', '606-EP2277507A1', '606-EP2277848A1', '606-EP2277867A2', '606-EP2277870A1', '606-EP2277879A1', '606-EP2277881A1', '606-EP2280003A2', '606-EP2280010A2', '606-EP2281559A1', '606-EP2281563A1', '606-EP2281812A1', '606-EP2281819A1', '606-EP2281823A2', '606-EP2284146A2', '606-EP2284147A2', '606-EP2284149A1', '606-EP2284160A1', '606-EP2284165A1', '606-EP2284169A1', '606-EP2284178A2', '606-EP2284179A2', '606-EP2286795A1', '606-EP2287153A1', '606-EP2287156A1', '606-EP2287161A1', '606-EP2287162A1', '606-EP2287165A2', '606-EP2287166A2', '606-EP2289510A1', '606-EP2289876A1', '606-EP2289883A1', '606-EP2289890A1', '606-EP2292592A1', '606-EP2292597A1', '606-EP2292617A1', '606-EP2292619A1', '606-EP2292620A2', '606-EP2292621A1', '606-EP2292624A1', '606-EP2295401A2', '606-EP2295402A2', '606-EP2295416A2', '606-EP2295418A1', '606-EP2295424A1', '606-EP2295426A1', '606-EP2295427A1', '606-EP2295429A1', '606-EP2295433A2', '606-EP2295438A1', '606-EP2295550A2', '606-EP2298734A2', '606-EP2298735A1', '606-EP2298742A1', '606-EP2298744A2', '606-EP2298748A2', '606-EP2298755A1', '606-EP2298758A1', '606-EP2298759A1', '606-EP2298772A1', '606-EP2298776A1', '606-EP2298783A1', '606-EP2301536A1', '606-EP2301538A1', '606-EP2301911A1', '606-EP2301924A1', '606-EP2301925A1', '606-EP2301929A1', '606-EP2301931A1', '606-EP2301935A1', '606-EP2301937A1', '606-EP2301939A1', '606-EP2301940A1', '606-EP2305250A1', '606-EP2305257A1', '606-EP2305646A1', '606-EP2305651A1', '606-EP2305659A1', '606-EP2305662A1', '606-EP2305664A1', '606-EP2305668A1', '606-EP2305669A1', '606-EP2305672A1', '606-EP2305674A1', '606-EP2305675A1', '606-EP2305679A1', '606-EP2305687A1', '606-EP2308833A2', '606-EP2308839A1', '606-EP2308848A1', '606-EP2308851A1', '606-EP2308854A1', '606-EP2308857A1', '606-EP2308858A1', '606-EP2308861A1', '606-EP2308865A1', '606-EP2308873A1', '606-EP2308875A1', '606-EP2308877A1', '606-EP2311455A1', '606-EP2311801A1', '606-EP2311802A1', '606-EP2311803A1', '606-EP2311807A1', '606-EP2311809A1', '606-EP2311810A1', '606-EP2311811A1', '606-EP2311815A1', '606-EP2311816A1', '606-EP2311817A1', '606-EP2311818A1', '606-EP2311831A1', '606-EP2311842A2', '606-EP2314295A1', '606-EP2314579A1', '606-EP2314584A1', '606-EP2314588A1', '606-EP2314593A1', '606-EP2316457A1', '606-EP2316458A1', '606-EP2316459A1', '606-EP2316825A1', '606-EP2316826A1', '606-EP2316827A1', '606-EP2316828A1', '606-EP2316836A1', '606-EP2371814A1', '606-EP2371831A1', '606-EP2372017A1', '606-EP2374788A1', '606-EP2377845A1', 'B0062', 'B2635', 'CS-0008257', 'FT-0622705', 'FT-0662569', 'FT-0662570', 'FT-0770591', 'SW219833-1', 'Benzoic acid, natural, >=99.5%, FCC, FG', 'Benzoic acid, SAJ special grade, >=99.5%', 'Benzoic acid, Vetec(TM) reagent grade, 98%', 'Benzoic acid, meets USP testing specifications', 'Benzoic acid, purified by sublimation, >=99%', 'C00180', 'C00539', 'D00038', 'D85168', 'AB00949635_05', 'AB00949635_06', 'A835250', 'A934445', 'Benzoic Acid Zone Refined (number of passes:20)', 'Q191700', 'SR-05000001919', 'Benzoic acid, puriss. p.a., ACS reagent, 99.9%', 'SR-05000001919-1', '0BE368DC-6DE6-4927-AECF-E4BB2968A4A0', 'Melting point standard 121-123C, analytical standard', 'Z57127480', 'F2191-0092', 'Benzoic acid, NIST(R) SRM(R) 39j, calorimetric standard', 'Benzoic acid, Standard for quantitative NMR, TraceCERT(R)', 'Benzoic acid, European Pharmacopoeia (EP) Reference Standard', 'Mettler-Toledo Calibration substance ME 18555, Benzoic acid', 'Benzoic acid on polystyrene, 1.6-2.1 mmol/g@CRLFMFCD03456189', 'Benzoic acid, for calorimetrical determination (approx. 26460 J/g)', 'Benzoic acid, United States Pharmacopeia (USP) Reference Standard', 'SS Benzoic Acid, 2000 mug/mL in dichloromethane, analytical standard', 'Benzoic acid solution, 200 mug/mL in methylene chloride, analytical standard', 'Benzoic Acid Solution, certified reference material, 2000 mug/mL in methylene chloride', 'Benzoic acid, Pharmaceutical Secondary Standard; Certified Reference Material', 'Benzoic acid, puriss. p.a., ACS reagent, reag. Ph. Eur., >=99.9% (alkalimetric)', 'Benzoic acid, certified reference material for titrimetry, certified by BAM according to ISO 17025, >=99.5%', 'Benzoic acid, meets analytical specification of Ph. Eur., BP, USP, FCC, E210, 99.5-100.5% (alkalimetric)', 'Carboxypolystyrene, 100-200 mesh, extent of labeling: 0.5-1.5 mmol/g loading, 1 % cross-linked', 'Carboxypolystyrene, 100-200 mesh, extent of labeling: 1.6-3.0 mmol/g loading, 1 % cross-linked', 'Mettler-Toledo Calibration substance ME 18555, Benzoic acid, analytical standard, for the calibration of the thermosystem 900, traceable to primary standards (LGC)', 'ScavengePore(TM) benzoic acid, macroporous, 40-70 mesh, extent of labeling: 0.5-1.5 mmol per g loading']"
56;methanol;-1;CH4O;32.042;CO;887;378.8;-101.7;-83.7;;;-5.1;-5.5;-4.3;-5.2;15.5;29;;;"['methanol', 'methyl alcohol', 'wood alcohol', 'carbinol', '67-56-1', 'Wood spirit', 'Wood naphtha', 'Methylol', 'Methyl hydroxide', 'Pyroxylic spirit', 'Colonial Spirit', 'Columbian Spirit', 'Columbian spirits', 'Monohydroxymethane', 'Methylalkohol', 'Alcool methylique', 'MeOH', 'Methyl hydrate', 'Alcohol, methyl', 'CH3OH', 'Metanolo', 'Alcool metilico', ""Bieleski's solution"", 'Colonial spirits', 'Metylowy alkohol', 'Pyroxylic spirits', 'Hydroxymethane', 'Freers Elm Arrester', 'Surflo-B17', 'Rcra waste number U154', 'Wilbur-Ellis Smut-Guard', 'Metanol [Spanish]', 'Metanolo [Italian]', 'Coat-B1400', 'Eureka Products, Criosine', 'Metanol', 'Caswell No. 552', 'Methylalkohol [German]', 'Spirit of wood', 'Alcool metilico [Italian]', 'Metylowy alkohol [Polish]', 'Alcool methylique [French]', 'X-Cide 402 Industrial Bactericide', 'HSDB 93', 'Ideal Concentrated Wood Preservative', 'Methyl alcohol [NF]', 'Eureka Products Criosine Disinfectant', 'NSC 85232', 'UN1230', 'CCRIS 2301', 'Pyro alcohol', 'CH4O', 'AI3-00409', 'MetOH', 'RCRA waste no. U154', 'UNII-Y4S76JWI15', 'EPA Pesticide Chemical Code 053801', 'Methanol-water mixture', 'CHEBI:17790', 'Y4S76JWI15', 'Methanol, anhydrous', 'MFCD00004595', 'Methyl alcohol (NF)', 'NCGC00091172-01', 'Aqualine&trade; Solvent', 'Methanol-[17O]', 'DSSTox_CID_1731', 'Aqualine&trade; Titrant 5', 'DSSTox_RID_76297', 'DSSTox_GSID_21731', 'Methanol, for HPLC, >=99.9%', 'Methanol, ACS reagent, >=99.8%', 'Methanol, or methyl alcohol [UN1230]  [Flammable liquid, Poison]', 'CAS-67-56-1', 'Pyroligneous spirit', '170082-17-4', 'MOH', 'EINECS 200-659-6', 'Methylalcohol', 'methly alcohol', 'methanol-', 'Wood', 'Methanol cluster', 'Methanol NF', 'Nat. Methanol', 'Methanol LC-MS', 'Methanol (I)', 'Methyl alcohol (I)', 'Methanol, for HPLC', 'Methanol (Recovered)', 'Methanol, ACS Grade', ""Solutions, Bieleski's"", 'Methanol, HPLC grade', 'Methanol, LCMS grade', 'Columbian     spirits', 'Hydroxymethylidyne radical', ""3'-Hydroxystanozolol-D3"", 'Methanol (Peptide Grade)', 'Methanol, Histology Grade', 'ACMC-1C6GT', 'bmse000294', 'Epitope ID:116865', 'EC 200-659-6', 'Aqualine&trade; Solvent CM', 'Methanol Reagent Grade ACS', 'Methanol, or methyl alcohol', 'Methanol, LR, >=99%', 'Methanol, SAJ special grade', 'Methanol, analytical standard', 'WLN: Q1', 'Methanol HPLC Gradient Grade', 'Methanol, Environmental Grade', 'Aqualine&trade; Electrolyte A', 'CHEMBL14688', 'Methanol, anhydrous, 99.8%', 'Methanol, p.a., 99.8%', 'Methanol, p.a., 99.9%', 'Aqualine&trade; Electrolyte AG', 'Aqualine&trade; Electrolyte CG', 'DTXSID2021731', 'Methanol, AR, >=99.5%', 'Methanol, NMR reference standard', 'Methanol, ultrapure, HPLC Grade', 'Methanol, 99.8%, ACS reagent', 'Methanol, anhydrous, >=99.5%', 'Methanol, low water for titration', 'Methanol GC, for residue analysis', 'Eriochrome&trade; Black T Solution', 'Methanol, Absolute - Acetone free', 'Methanol, HPLC gradient, 99.9%', 'Methanol, or methyl alcohol [UN1230] [Flammable liquid, Poison]', 'NSC85232', 'Methanol, for HPLC, >=99.8%', 'Methanol, PRA grade, >=99.9%', 'Tox21_111094', 'Tox21_202523', '8292AF', 'CB0177', 'Methanol, HPLC Plus, >=99.9%', 'NSC-85232', 'AKOS000269045', 'Methanol, purification grade, 99.8%', 'MCULE-1370061678', 'UN 1230', 'Methanol, UHPLC, for mass spectrometry', 'Methanol solution, technical grade, 95%', 'Methanol, >=99.8%, for chromatography', 'Methanol, SAJ first grade, >=99.5%', 'NCGC00260072-01', 'Methanol, JIS special grade, >=99.8%', 'Methanol, Laboratory Reagent, >=99.6%', 'Methanol, UV HPLC spectroscopic, 99.9%', 'Methanol, anhydrous, ZerO2(TM), 99.8%', 'Methanol, spectrophotometric grade, >=99%', 'FT-0623465', 'FT-0628297', 'FT-0628299', 'FT-0700908', 'FT-0700959', 'M0097', 'M0628', 'Methanol, ultrapure, Spectrophotometric Grade', 'C00132', 'D02309', 'Methanol, for HPLC, gradient grade, 99.93%', 'Methanol, suitable for determination of dioxins', 'Q14982', 'Methanol, for HPLC, gradient grade, >=99.9%', 'Methanol, glass distilled HRGC/HPLC trace grade', 'Methanol, low benzene, ACS reagent, >=99.8%', 'Methanol, ACS spectrophotometric grade, >=99.9%', 'Methanol HPLC, UV-IR min. 99.9% isocratic grade', 'Methanol, BioReagent, suitable for protein sequencing', 'Methanol, for HPLC, gradient grade, >=99.8% (GC)', 'Methanol, HPLC Plus, >=99.9%, poly-coated bottles', 'Q27115113', 'Methanol solution, (Methanol:Acetonitrile 1:1 (v/v))', 'Methanol solution, contains 0.50 % (v/v) triethylamine', 'Methanol, Vetec(TM) reagent grade, anhydrous, >=99.8%', 'Methanol solution, (Methanol:Dichloromethane 1:1 (v/v))', 'Methanol, for residue analysis, suitable for 5000 per JIS', 'Moisture in methanol, 325 mg/kg, NIST(R) SRM(R) 8510', 'Moisture in methanol, 93 mg/kg, NIST(R) SRM(R) 8509', 'UNII-N4G9GAT76C component OKKJLVBELUTLKV-UHFFFAOYSA-N', 'Methanol solution, (Methanol:Dimethyl sulfoxide 1:1 (v/v))', 'Methanol solution, contains 0.1 % (v/v) trifluoroacetic acid', 'Methanol solution, for protein sequence analysis, ~50% in H2O', 'Methanol with 0.1% trifluoroacetic acid, tested for UHPLC-MS', 'Methanol, >=99.8%, suitable for absorption spectrum analysis', 'Methanol, semiconductor grade PURANAL(TM) (Honeywell 17824)', 'Methanol, p.a., ACS reagent, reag. ISO, reag. Ph. Eur., 99.9%', 'Methanol, puriss. p.a., absolute, ACS reagent, >=99.8% (GC)', 'Methanol, semiconductor grade VLSI PURANAL(TM) (Honeywell 17744)', 'Methanol, suitable for protein sequencing, BioReagent, >=99.93%', 'Methyl alcohol, United States Pharmacopeia (USP) Reference Standard', 'Methanol, Pharmaceutical Secondary Standard; Certified Reference Material', 'Methanol, puriss., meets analytical specification of Ph Eur, >=99.7% (GC)', 'Methanol, suitable for 1000 per JIS, >=99.8%, for residue analysis', 'Methanol, suitable for 300 per JIS, >=99.8%, for residue analysis', ""(5beta,17beta)-17-Hydroxy-17-(methyl-d3)-2'H-androst-2-eno[3,2-c]pyrazol-5'(1'H)-one"", 'Methanol solution, contains 0.1 % (v/v) trifluoroacetic acid, 5 % (v/v) water, for HPLC', 'Methanol solution, contains 0.10 % (v/v) trifluoroacetic acid, 10 % (v/v) water', 'Methanol solution, for HPLC, contains 10 % (v/v) water, 0.1 % (v/v) trifluoroacetic acid', 'Methanol, for HPLC, gradient grade, suitable as ACS-grade LC reagent, >=99.9%', 'Methanol, puriss. p.a., ACS reagent, reag. ISO, reag. Ph. Eur., >=99.8% (GC)', 'Residual Solvent Class 2 - Methanol, United States Pharmacopeia (USP) Reference Standard', 'JandaJel(TM)-OH, 100-200 mesh, extent of labeling: 1.0 mmol/g OH loading, 2 % cross-linked', 'JandaJel(TM)-OH, 200-400 mesh, extent of labeling: 1.0 mmol/g OH loading, 2 % cross-linked', 'JandaJel(TM)-OH, 50-100 mesh, extent of labeling: 1.0 mmol/g OH loading, 2 % cross-linked', 'Methanol solution, contains 0.10 % (v/v) formic acid, UHPLC, for mass spectrometry, >=99.5%', 'Methanol solution, NMR reference standard, 4% in methanol-d4 (99.8 atom % D), NMR tube size 3 mm x 8 in.', 'Methanol solution, NMR reference standard, 4% in methanol-d4 (99.8 atom % D), NMR tube size 5 mm x 8 in.']"