Number;IUPAC_name;Charge;Molecular Formula;Molecular Weight [g/mol];Isomeric SMILES;Pubchem CID;GasPhaseAcidity_B2PLYP//DLPNO-CCSD(T) [kcal/mol];GSolv_Ion_Water [kcal/mol];GSolv_Ion_DMSO [kcal/mol];GSolv_Ion_Acetonitrile [kcal/mol];GSolv_Ion_MeOH [kcal/mol];Gsolv_Neutral_Water_exp [kcal/mol];Gsolv_Neutral_DMSO_TZVPD-Fine [kcal/mol];Gsolv_Neutral_Acetonitrile_TZVPD-Fine [kcal/mol];Gsolv_Neutral_MeOH_TZVPD-Fine [kcal/mol];pka_water;pka_DMSO;pka_Acetonitrile;pka_MeOH;Synonyms
85;acetamide;1;C2H5NO;59.07;CC(=O)N;178;196.1;-73.8;;;;-9.7;-10.3;-8.8;-10.1;-0.6;;;;"['acetamide', '60-35-5', 'Ethanamide', 'Acetic acid amide', 'Methanecarboxamide', 'Acetimidic acid', 'Amide C2', 'Ethanimidic acid', 'acetamid', 'Amid kyseliny octove', 'Caswell No. 003H', 'Acetimidic acid (VAN)', 'CCRIS 2', 'NCI-C02108', 'acetoamide', 'HSDB 4006', 'CH3CONH2', 'UNII-8XOE1JSO29', 'Acetamide, homopolymer', 'AI3-02060', '8XOE1JSO29', 'CHEBI:27856', 'MFCD00008023', 'Ethanamid', '74330-92-0', 'Amid kyseliny octove [Czech]', 'EINECS 200-473-5', 'NSC 25945', 'acetylamine', 'BRN 1071207', 'Essigsaeureamid', 'imidoacetic acid', 'N-Methylformamde', 'DSSTox_CID_5', 'Acetamide, >=98%', 'ACETAMIDE, REAGENT', 'Lopac-A-0500', 'ACMC-1AWJ5', 'bmse000825', 'bmse000895', 'EC 200-473-5', 'Acetamide, sublimed, 99%', 'WLN: ZV1', 'Acetic acid amide;Ethanamide', 'DSSTox_RID_75317', 'Acetamide, ~99% (GC)', 'DSSTox_GSID_20005', 'Lopac0_000003', '4-02-00-00399 (Beilstein Handbook Reference)', 'MLS002153504', 'Acetamide, analytical standard', 'BIDD:ER0566', 'CHEMBL16081', 'GTPL4661', 'DTXSID7020005', 'Acetamide, crystalline, >=99%', 'CHEBI:49028', 'Acetamide, >=98.0% (GC)', 'Acetamide, >=99.0% (GC)', 'HMS3260A07', 'Acetamide (6CI,7CI,8CI,9CI)', 'BCP26153', 'HY-Y0946', 'NSC25945', 'STR01066', 'ZINC8034818', 'Tox21_300776', 'Tox21_500003', 'NSC-25945', 's6011', 'STL283915', 'AKOS000118788', 'AKOS015917387', 'CCG-204099', 'DB02736', 'LP00003', 'MCULE-9280264861', 'SDCCGSBI-0049992.P002', 'CAS-60-35-5', 'Benzeneacetic?acid,?|A-amino-4-methyl-', 'NCGC00015030-01', 'NCGC00015030-02', 'NCGC00015030-03', 'NCGC00015030-04', 'NCGC00015030-05', 'NCGC00015030-06', 'NCGC00093530-01', 'NCGC00093530-02', 'NCGC00254680-01', 'NCGC00260688-01', 'SMR000326670', 'A0007', 'CS-0015934', 'EU-0100003', 'FT-0603458', 'FT-0621721', 'FT-0621725', 'FT-0625737', '9745-EP2269990A1', '9745-EP2275407A1', '9745-EP2275469A1', '9745-EP2287940A1', '9745-EP2289890A1', '9745-EP2289965A1', '9745-EP2295402A2', '9745-EP2295550A2', '9745-EP2298744A2', '9745-EP2298749A1', '9745-EP2298761A1', '9745-EP2298776A1', '9745-EP2298777A2', '9745-EP2298828A1', '9745-EP2301918A1', '9745-EP2301933A1', '9745-EP2301983A1', '9745-EP2305640A2', '9745-EP2305648A1', '9745-EP2305687A1', '9745-EP2308872A1', '9745-EP2308873A1', '9745-EP2308880A1', '9745-EP2311808A1', '9745-EP2311827A1', '9745-EP2311829A1', '9745-EP2311842A2', '9745-EP2314593A1', '9745-EP2316829A1', '9745-EP2316831A1', '9745-EP2316834A1', 'A 0500', 'C06244', '25464-EP2284166A1', '25464-EP2314580A1', '25704-EP2298729A1', '25704-EP2315303A1', 'A832706', 'Q421721', 'SR-01000076247', 'J-523678', 'SR-01000076247-1', 'Acetamide, zone-refined, purified by sublimation, 99%', 'F1908-0077', '02U']"
86;benzamide;1;C7H7NO;121.14;C1=CC=C(C=C1)C(=O)N;2331;203.0;-67.0;;-75.0;;-10.9;-13.7;-11.8;-12.6;-1.4;;3.8;;['Benzamide', '55-21-0', 'Benzoylamide', 'Benzoic acid amide', 'Phenylcarboxyamide', 'Phenylcarboxamide', 'Benzenecarboxamide', 'Amid kyseliny benzoove', 'Amid kyseliny benzoove [Czech]', 'NSC 3114', 'Phenyl Carboxyamide', 'Benzamide, homopolymer', 'BENZOIC ACID,AMIDE', 'MFCD00007968', 'UNII-6X80438640', 'CHEMBL267373', 'CHEBI:28179', '6X80438640', '55738-52-8', 'CCRIS 4594', 'HSDB 6360', 'EINECS 200-227-7', 'benzeneamide', 'benzimide', 'BRN 0385876', 'N-benzoylamine', 'benzoyl nitrogen', 'AI3-01031', 'benzene carboxamide', 'benzene-carboxamide', 'Benzamide, 99%', 'WLN: ZVR', 'benzene carboximidoic acid', 'PhC(O)NH2', 'Lopac-B-2009', 'ACMC-1AZ9T', 'DSSTox_CID_1709', 'bmse000668', 'PhC(=O)NH2', 'DSSTox_RID_76288', 'DSSTox_GSID_21709', 'Lopac0_000160', 'SCHEMBL16352', '4-09-00-00725 (Beilstein Handbook Reference)', 'benzamide (ACD/Name 4.0)', 'MLS000069472', 'Benzamide, p.a., 98.0%', 'DTXSID0021709', 'NSC3114', 'HMS2231M11', 'HMS3260O22', 'HMS3371I16', 'HMS3885L18', 'ZINC152996', 'CS-Z0019', 'HY-Z0283', 'NSC-3114', 'Tox21_200621', 'Tox21_500160', 'BDBM50106187', 's4715', 'STK069333', 'AKOS000118773', 'CCG-204255', 'LP00160', 'MCULE-2811211507', 'SDCCGSBI-0050148.P002', 'CAS-55-21-0', 'Benzamide, purum, >=98.0% (HPLC)', 'NCGC00015142-01', 'NCGC00015142-02', 'NCGC00015142-03', 'NCGC00015142-04', 'NCGC00015142-05', 'NCGC00015142-06', 'NCGC00015142-07', 'NCGC00091355-01', 'NCGC00091355-02', 'NCGC00091355-03', 'NCGC00258175-01', 'NCGC00260845-01', 'BP-21224', 'DS-17194', 'SMR000059089', 'SY047098', 'Benzamide, Vetec(TM) reagent grade, 98%', 'B0012', 'B0220', 'EU-0100160', 'FT-0622630', 'FT-0622631', 'AZ0001-0025', 'B 2009', 'Benzamide, purified by sublimation, >=99.5%', 'C09815', 'D70176', '12078-EP2272827A1', '12078-EP2275469A1', '12078-EP2284157A1', '12078-EP2284169A1', '12078-EP2287161A1', '12078-EP2287162A1', '12078-EP2287940A1', '12078-EP2289894A2', '12078-EP2289965A1', '12078-EP2292593A2', '12078-EP2295061A1', '12078-EP2295402A2', '12078-EP2295413A1', '12078-EP2295421A1', '12078-EP2295424A1', '12078-EP2295550A2', '12078-EP2298076A1', '12078-EP2298077A1', '12078-EP2298731A1', '12078-EP2298828A1', '12078-EP2300455A2', '12078-EP2301353A1', '12078-EP2301929A1', '12078-EP2301935A1', '12078-EP2301983A1', '12078-EP2305031A1', '12078-EP2305034A1', '12078-EP2305035A1', '12078-EP2305662A1', '12078-EP2305674A1', '12078-EP2305687A1', '12078-EP2308848A1', '12078-EP2308858A1', '12078-EP2311494A1', '12078-EP2314583A1', '12078-EP2314585A1', '12078-EP2316825A1', '12078-EP2316831A1', '12078-EP2371810A1', '74166-EP2308857A1', 'A830526', 'Q417731', 'SR-01000075601', 'SR-01000075601-1', 'Benzamide, zone-refined, purified by sublimation, 99.9%', 'F3145-2903', 'Sulfabenzamide|Sulfabenzid|Sulfabenzide|Sulfabenzoylamide|N-Sulfamylbenzamide']
87;2-nitrophenol;-1;C6H5NO3;139.11;C1=CC=C(C(=C1)[N+](=O)[O-])O;6947;332.2;-65.9;;;;-4.5;-8.7;-8.5;-7.8;7.2;;;;['2-NITROPHENOL', 'o-Nitrophenol', '88-75-5', 'Phenol, 2-nitro-', '2-Hydroxynitrobenzene', 'o-Hydroxynitrobenzene', 'Phenol, o-nitro-', 'o-Nitrofenol', '2-nitro-phenol', 'UNII-BD148E95KD', 'MFCD00011688', 'nitro phenol', 'BD148E95KD', 'CHEBI:16260', 'Hydroxy(2-Hydroxyphenyl)oxoammonium', 'ortho-nitrophenol', '2-Hydroxynitrobenzene[Qr]', 'DSSTox_CID_1790', 'DSSTox_RID_76328', 'DSSTox_GSID_21790', 'o-Nitrofenol [Czech]', 'CAS-88-75-5', 'CCRIS 2314', 'HSDB 1133', 'o-Nitrophenol (molten)', 'NSC 1552', 'EINECS 201-857-5', 'AI3-14893', 'o-nitro-phenol', '0-nitrophenol', '2-nitro phenol', 'hydroxynitrobenzene', 'CG3', 'NITROPHENOLATE', '2-nitrophenyl alcohol', 'o-Nitrophenol [UN1663]  [Poison]', '2-Nitrophenol, 98%', 'WLN: WNR BQ', 'EC 201-857-5', '2-Nitrophenol, 99.0%', 'SCHEMBL26026', 'BIDD:ER0656', 'CHEMBL14205', '1-OH', 'SR-1C4', 'DTXSID1021790', 'SCHEMBL11524557', 'SCHEMBL16254545', 'NSC1552', 'BCP25852', 'NSC-1552', 'STR00905', 'Tox21_201442', 'Tox21_302758', 'STK011520', 'ZINC34719541', 'AKOS000118749', 'AM10677', 'CCG-321789', 'MCULE-1415513135', 'UN 1663', 'NCGC00090898-01', 'NCGC00090898-02', 'NCGC00256357-01', 'NCGC00258993-01', '2-Nitrophenol 100 microg/mL in Methanol', 'H443', '2-Nitrophenol, purum, >=98.0% (HPLC)', 'FT-0613201', 'FT-0693760', 'N0153', 'N0219', 'C01988', 'N-3590', '82634-EP2298758A1', '82634-EP2298759A1', '82634-EP2298770A1', '82634-EP2305664A1', '82734-EP2295432A1', '82734-EP2298758A1', '82734-EP2298759A1', '82734-EP2298776A1', '82734-EP2305633A1', '82734-EP2305664A1', '2-Nitrophenol, PESTANAL(R), analytical standard', 'AB-131/40228446', 'Q18907378', 'Z57201355', 'F3146-3482', 'UNII-UV7XKM40LO component IQUPABOKLQSFBK-UHFFFAOYSA-N', 'OPO']
88;3-nitrophenol;-1;C6H5NO3;139.11;C1=CC(=CC(=C1)O)[N+](=O)[O-];11137;328.8;-65.9;;-48.5;-64.3;-9.6;-15.8;-13.4;-13.3;8.4;;23.9;12.3;['3-Nitrophenol', '554-84-7', 'M-NITROPHENOL', 'Phenol, 3-nitro-', '3-Hydroxynitrobenzene', 'm-Hydroxynitrobenzene', 'Phenol, m-nitro-', 'm-Nitrofenol', 'meta-Nitrophenol', '3-nitro-phenol', '1-Hydroxy-3-nitrobenzene', 'NSC 1551', 'UNII-T6P4T52V9W', 'T6P4T52V9W', 'CHEBI:34346', 'MFCD00007240', 'm-Nitrofenol [Czech]', 'Crump leather-lasting dressing', 'CCRIS 2315', 'HSDB 1337', 'EINECS 209-073-5', 'AI3-08825', '5-nitrophenol', '3-nitro phenol', 'ACMC-1AWKT', 'WLN: WNR CQ', 'DSSTox_CID_5765', 'DSSTox_RID_77916', 'DSSTox_GSID_25765', 'SCHEMBL50135', 'MLS002415747', 'BIDD:ER0534', 'CHEMBL13888', 'SR-1C3', '3-Nitrophenol, puriss., 99%', 'DTXSID2025765', 'SCHEMBL13815837', 'NSC1551', 'HMS3039H09', 'LABOTEST-BB LTBB003444', 'NSC-1551', 'STR00679', 'ZINC1576887', 'Tox21_200022', 'STK290830', 'AKOS000119831', 'AKOS015831340', 'AKOS024268500', 'm-Nitrophenol [UN1663]  [Poison]', '3-Nitrophenol, ReagentPlus(R), 99%', 'AC-3123', 'AS00219', 'EBD2210848', 'LS11800', 'MCULE-3385567100', 'NCGC00090900-01', 'NCGC00090900-02', 'NCGC00257576-01', 'CAS-554-84-7', 'SMR001370910', 'DB-024131', '3-Nitrophenol, purum, >=98.0% (HPLC)', 'FT-0616257', 'N0217', 'N-3595', '47165-EP2272822A1', '47165-EP2281563A1', '47165-EP2301939A1', '47165-EP2305687A1', '47165-EP2308833A2', '47165-EP2311822A1', 'A830666', 'AE-562/40296193', 'Q3598793', 'Z57160187', 'F0001-1455', 'UNII-UV7XKM40LO component RTZZCYNQPHTPPL-UHFFFAOYSA-N']
89;4-nitrophenol;-1;C6H5NO3;139.11;C1=CC(=CC=C1[N+](=O)[O-])O;980;322.1;-62.0;-63.0;-47.0;-59.8;-10.6;-16.7;-14.2;-14.2;7.1;10.8;20.7;11.3;"['4-Nitrophenol', 'p-nitrophenol', '100-02-7', 'Phenol, 4-nitro-', 'Niphen', 'Paranitrophenol', '4-Hydroxynitrobenzene', 'p-Hydroxynitrobenzene', 'Phenol, p-nitro-', 'para-nitrophenol', 'Mononitrophenol', 'Paranitrofenol', 'Paranitrofenolo', 'p-Nitrofenol', '4-Nitrofenol', 'RCRA waste number U170', 'Caswell No. 603', 'NCI-C55992', 'p-Nitrofenol [Czech]', 'Paranitrofenol [Dutch]', '4-Nitrofenol [Dutch]', 'Paranitrofenolo [Italian]', '1-Hydroxy-4-nitrobenzene', 'PNP', 'NSC 1317', 'Paranitrophenol [French,German]', '4-nitro-phenol', 'RCRA waste no. U170', 'UNII-Y92ZL45L4R', 'UN1663', 'EPA Pesticide Chemical Code 056301', 'CHEBI:16836', 'AI3-04856', 'MFCD00007331', 'Y92ZL45L4R', 'p-Nitrophenol [UN1663]  [Poison]', '4-Nitrophenol-15N', 'DSSTox_CID_1834', 'DSSTox_RID_76356', 'DSSTox_GSID_21834', 'CAS-100-02-7', 'NPO', 'CCRIS 2316', 'HSDB 1157', 'EINECS 202-811-7', 'p-nitrophenole', 'p-Nnitrophenol', 'p-nitro phenol', '4-nitryl phenol', '4- nitrophenol', '4-nitro phenol', '4-nitrophenol-', '4-Nitrophenol,', '3qvu', 'RPN', 'HONP', 'p-Nitrophenol solution', 'PHENOL,4-NITRO', 'PARA NITRO PHENOL', 'WLN: WNR DQ', '4-Hydroxy-1-nitrobenzene', 'bmse000223', 'Epitope ID:161303', 'O2NC6H4OH', 'EC 202-811-7', 'SCHEMBL1839', '4-NITROPHENOL IMP F', 'CHEMBL14130', 'PARAGOS 330264', 'SGCUT00249', 'SR-1C2', '1-HYDROXY-4-NITROBENZOL', '4-Nitrophenol solution, 10 mM', '4-Nitrophenol, puriss., 99%', 'DTXSID0021834', 'H-M-FLUORO-D-PHE-OMEHCL', 'SCHEMBL13906248', 'SCHEMBL14501907', 'BDBM31678', 'TIMTEC-BB SBB040875', 'NSC1317', '4-Nitrophenol, Reference Material', 'LABOTEST-BB LTBB002356', 'NSC-1317', 'to_000002', 'AKOS BBS-00004351', 'Tox21_202444', 'Tox21_300117', '4-Nitrophenol, reagent grade, 98%', 's6196', 'STL281865', 'ZINC34828682', 'AKOS000118985', '4-Nitrophenol, spectrophotometric grade', 'AS00220', 'DB04417', 'MCULE-5860903209', 'NCGC00247904-01', 'NCGC00247904-02', 'NCGC00254220-01', 'NCGC00259993-01', '4-Nitrophenol 100 microg/mL in Methanol', '4-Nitrophenol, ReagentPlus(R), >=99%', 'AS-13146', 'BP-20405', 'H447', '4-Nitrophenol 10 microg/mL in Acetonitrile', 'DS-005476', 'FT-0600022', 'FT-0672814', 'N0161', 'N0162', 'N0220', '1986-EP2275404A1', '1986-EP2280282A1', '1986-EP2289887A2', '1986-EP2289888A2', '1986-EP2298776A1', '1986-EP2301536A1', '1986-EP2301538A1', '1986-EP2302382A2', '1986-EP2302383A2', '1986-EP2305825A1', '1986-EP2311455A1', '1986-EP2314586A1', '4-Nitrophenol, JIS special grade, >=99.0%', 'C00870', 'N-3600', 'N-3610', '47175-EP2281563A1', '47175-EP2298312A1', '47175-EP2308833A2', '47175-EP2311822A1', '197894-EP2269975A2', '197894-EP2269997A2', '197894-EP2275415A2', '4-Nitrophenol, PESTANAL(R), analytical standard', 'A800004', 'AE-562/40217722', 'Q656269', 'Z57127483', 'F9995-1636', '4-Nitrophenol, certified reference material, TraceCERT(R)', 'UNII-UV7XKM40LO component BTJIUGUIPKRLHP-UHFFFAOYSA-N', '4-Nitrophenol solution, stock solution, for mass spectrometry', '4-Nitrophenol solution, working solution, for mass spectrometry', '4-Nitrophenol solution, certified reference material, 5000 mug/mL in methanol', 'Acetaminophen Related Compound F, United States Pharmacopeia (USP) Reference Standard', '4-NITROPHENOL (Acetaminophen Related Compound F)(Paracetamol Impurity F), Pharmaceutical Secondary Standard; Certified Reference Material']"
90;nitromethane;-1;CH3NO2;61.04;C[N+](=O)[O-];6375;354.3;-83.4;-75.8;;;-4;-5.9;-6.0;-5.1;10.2;17.2;;;['NITROMETHANE', '75-52-5', 'Methane, nitro-', 'Nitrocarbol', 'Nitrometan', 'CH3NO2', 'nitro methane', 'nitro-methane', 'NSC 428', 'UNII-RU5WG8C3F4', 'MeNO2', 'RU5WG8C3F4', 'CHEBI:77701', 'Nitrometan [Polish]', 'Nitromethane, ACS reagent, >=95%', 'CCRIS 1205', 'HSDB 106', 'EINECS 200-876-6', 'UN1261', 'nitrometane', 'AI3-00111', 'nitro- methane', 'aci-Nitromethanium', 'Nitromethane, ACS', 'MFCD00007400', 'Nitro fuel (Salt/Mix)', 'Nitromethane, 99.0%', 'DSSTox_CID_977', 'Nitromethane, HPLC grade', 'Nitromethane [UN1261]  [Flammable liquid]', 'ACMC-1BL9U', 'CH2NO2', 'NO2CH3', 'EC 200-876-6', 'WLN: WN1', 'DSSTox_RID_75900', 'N-Hydroxy-N-oxomethanaminium', 'DSSTox_GSID_20977', 'Ex172', 'CHEMBL276924', 'NSC428', 'DTXSID2020977', 'Nitromethane, analytical standard', 'NSC-428', 'Nitromethane, reagent grade, 96%', 'Nitromethane, for HPLC, >=96%', 'ZINC8830544', 'Tox21_200822', 'BR1297', 'METHYLENE, NITRO-(8CI,9CI)', 'STL185630', 'AKOS009031372', 'MCULE-8704524604', 'UN 1261', 'CAS-75-52-5', 'Methane, nitro-,ion(1-) (8CI,9CI)', 'NCGC00091494-01', 'NCGC00091494-02', 'NCGC00258376-01', 'Nitromethane, ReagentPlus(R), >=99.0%', 'Nitromethane, SAJ first grade, >=90.0%', 'FT-0659976', 'N0019', 'N0209', 'N0239', 'C19275', 'A838443', 'Q407733', 'F1908-0092', 'Nitromethane, puriss., absolute, over molecular sieve (H2O <=0.01%), >=98.5% (GC)']
91;4-nitroaniline;-1;C6H6N2O2;138.12;C1=CC(=CC=C1N)[N+](=O)[O-];7475;338.5;-62.6;-66.8;;;-9.9;-17.8;-14.9;-14.8;18.2;20.9;;;['4-NITROANILINE', 'p-Nitroaniline', '100-01-6', 'p-Nitraniline', 'p-Aminonitrobenzene', '4-Nitrobenzenamine', '4-Nitraniline', 'Benzenamine, 4-nitro-', 'p-Nitrophenylamine', '1-Amino-4-nitrobenzene', 'Aniline, p-nitro-', 'Developer P', 'Aniline, 4-nitro-', 'para-Nitroaniline', 'Azoamine Red ZH', 'Nitrazol CF extra', 'Devol Red GG', 'Fast Red P Base', 'Fast Red P Salt', 'Fast Red Base GG', 'Fast Red GG Base', 'Fast Red GG Salt', 'Fast Red MP Base', 'Fast Red Salt GG', 'Diazo Fast Red GG', 'Red 2G Base', 'Fast Red 2G Base', 'Fast Red 2G Salt', 'Fast Red Base 2J', 'Fast Red Salt 2J', 'Azofix Red GG Salt', 'C.I. Developer 17', 'Naphtoelan Red GG Base', 'Azoic Diazo Component 37', 'Paranitroaniline', 'p-Nitroanilina', 'Shinnippon Fast Red GG Base', 'Rcra waste number P077', 'C.I. Azoic Diazo Component 37', 'p-nitro aniline', 'UNII-1MRQ0QZG7G', 'NCI-C60786', '4-NITRO-PHENYLAMINE', 'NSC 9797', 'C.I. 37035', 'PNA', '4-NITRO-ANILINE', 'PARA NITRO ANILINE', 'MFCD00007858', '1MRQ0QZG7G', 'DTXSID8020961', 'CHEBI:17064', 'NCGC00091426-02', '4-Nitrobenzeneamine', '4-Aminonitrobenzene', 'CI Developer 17', 'para-Aminonitrobenzene', 'p-Nitroanilina [Polish]', 'PNA (VAN)', '4-nitrophenylamine', 'Azoamine Red 2H', 'CI Azoic Diazo Component 37', 'CCRIS 1184', 'HSDB 1156', 'Benzen-2,3,5,6-d4-amine-d2, 4-nitro-', 'EINECS 202-810-1', 'RCRA waste no. P077', 'CI 37035', 'p-nitro-aniline', 'para-nitroanilin', 'AI3-08926', '4-nitro aniline', 'p-Nitroaniline, solid', '(4-nitrophenyl)-amine', '4-Nitroaniline, 99%', '4-Nitrobenzeneamine anion', 'DSSTox_CID_961', 'WLN: ZR DNW', 'EC 202-810-1', '4-Nitroaniline, crystalline', '4-Nitroaniline, >=99%', 'ACMC-1B5R8', 'DSSTox_RID_75889', 'NCIOpen2_002864', 'DSSTox_GSID_20961', 'SCHEMBL16451', 'AURORA KA-7786', 'MLS002454441', 'CHEMBL14282', '4-Nitro-3-chloro benzoic acid', 'SCHEMBL10163408', 'NSC9797', 'AKOS 92446', 'HMS3039B17', 'LABOTEST-BB LTBB000466', '4-Nitroaniline, analytical standard', 'NSC-9797', 'STR00350', 'ZINC3860644', 'Tox21_400031', 'STK301653', 'AKOS000119131', 'AKOS025293369', 'AS00442', 'LS10622', 'MCULE-4310869465', 'p-Nitroaniline [UN1661]  [Poison]', 'NCGC00091426-01', 'NCGC00091426-03', 'CAS-100-01-6', 'I577', 'SMR001372024', 'FT-0650287', 'N0119', 'AZ0001-0085', '00N016', 'C02126', '78632-EP2270004A1', '78632-EP2305808A1', '78632-EP2308847A1', '78633-EP2272822A1', '78633-EP2272825A2', '78633-EP2308847A1', '78633-EP2380872A1', 'AE-641/01643038', 'Q419842', 'Q-200503', 'F2190-0433', 'Z275127984']
92;acetamide;-1;C2H5NO;59.07;CC(=O)N;178;358.6;-86.6;-73.0;;;-9.7;-10.3;-8.8;-10.1;15.1;25.5;;;"['acetamide', '60-35-5', 'Ethanamide', 'Acetic acid amide', 'Methanecarboxamide', 'Acetimidic acid', 'Amide C2', 'Ethanimidic acid', 'acetamid', 'Amid kyseliny octove', 'Caswell No. 003H', 'Acetimidic acid (VAN)', 'CCRIS 2', 'NCI-C02108', 'acetoamide', 'HSDB 4006', 'CH3CONH2', 'UNII-8XOE1JSO29', 'Acetamide, homopolymer', 'AI3-02060', '8XOE1JSO29', 'CHEBI:27856', 'MFCD00008023', 'Ethanamid', '74330-92-0', 'Amid kyseliny octove [Czech]', 'EINECS 200-473-5', 'NSC 25945', 'acetylamine', 'BRN 1071207', 'Essigsaeureamid', 'imidoacetic acid', 'N-Methylformamde', 'DSSTox_CID_5', 'Acetamide, >=98%', 'ACETAMIDE, REAGENT', 'Lopac-A-0500', 'ACMC-1AWJ5', 'bmse000825', 'bmse000895', 'EC 200-473-5', 'Acetamide, sublimed, 99%', 'WLN: ZV1', 'Acetic acid amide;Ethanamide', 'DSSTox_RID_75317', 'Acetamide, ~99% (GC)', 'DSSTox_GSID_20005', 'Lopac0_000003', '4-02-00-00399 (Beilstein Handbook Reference)', 'MLS002153504', 'Acetamide, analytical standard', 'BIDD:ER0566', 'CHEMBL16081', 'GTPL4661', 'DTXSID7020005', 'Acetamide, crystalline, >=99%', 'CHEBI:49028', 'Acetamide, >=98.0% (GC)', 'Acetamide, >=99.0% (GC)', 'HMS3260A07', 'Acetamide (6CI,7CI,8CI,9CI)', 'BCP26153', 'HY-Y0946', 'NSC25945', 'STR01066', 'ZINC8034818', 'Tox21_300776', 'Tox21_500003', 'NSC-25945', 's6011', 'STL283915', 'AKOS000118788', 'AKOS015917387', 'CCG-204099', 'DB02736', 'LP00003', 'MCULE-9280264861', 'SDCCGSBI-0049992.P002', 'CAS-60-35-5', 'Benzeneacetic?acid,?|A-amino-4-methyl-', 'NCGC00015030-01', 'NCGC00015030-02', 'NCGC00015030-03', 'NCGC00015030-04', 'NCGC00015030-05', 'NCGC00015030-06', 'NCGC00093530-01', 'NCGC00093530-02', 'NCGC00254680-01', 'NCGC00260688-01', 'SMR000326670', 'A0007', 'CS-0015934', 'EU-0100003', 'FT-0603458', 'FT-0621721', 'FT-0621725', 'FT-0625737', '9745-EP2269990A1', '9745-EP2275407A1', '9745-EP2275469A1', '9745-EP2287940A1', '9745-EP2289890A1', '9745-EP2289965A1', '9745-EP2295402A2', '9745-EP2295550A2', '9745-EP2298744A2', '9745-EP2298749A1', '9745-EP2298761A1', '9745-EP2298776A1', '9745-EP2298777A2', '9745-EP2298828A1', '9745-EP2301918A1', '9745-EP2301933A1', '9745-EP2301983A1', '9745-EP2305640A2', '9745-EP2305648A1', '9745-EP2305687A1', '9745-EP2308872A1', '9745-EP2308873A1', '9745-EP2308880A1', '9745-EP2311808A1', '9745-EP2311827A1', '9745-EP2311829A1', '9745-EP2311842A2', '9745-EP2314593A1', '9745-EP2316829A1', '9745-EP2316831A1', '9745-EP2316834A1', 'A 0500', 'C06244', '25464-EP2284166A1', '25464-EP2314580A1', '25704-EP2298729A1', '25704-EP2315303A1', 'A832706', 'Q421721', 'SR-01000076247', 'J-523678', 'SR-01000076247-1', 'Acetamide, zone-refined, purified by sublimation, 99%', 'F1908-0077', '02U']"