Number;IUPAC_name;Charge;Molecular Formula;Molecular Weight [g/mol];Isomeric SMILES;Pubchem CID;GasPhaseAcidity_B2PLYP//DLPNO-CCSD(T) [kcal/mol];GSolv_Ion_Water [kcal/mol];GSolv_Ion_DMSO [kcal/mol];GSolv_Ion_Acetonitrile [kcal/mol];GSolv_Ion_MeOH [kcal/mol];Gsolv_Neutral_Water_exp [kcal/mol];Gsolv_Neutral_DMSO_TZVPD-Fine [kcal/mol];Gsolv_Neutral_Acetonitrile_TZVPD-Fine [kcal/mol];Gsolv_Neutral_MeOH_TZVPD-Fine [kcal/mol];pka_water;pka_DMSO;pka_Acetonitrile;pka_MeOH;Synonyms
139;oxolane;1;C4H8O;72.11;C1CCOC1;8028;189.9;;;-76.6;;;-3.3;-4.0;-4.6;;;1.1;;"['TETRAHYDROFURAN', 'Oxolane', '109-99-9', 'Furan, tetrahydro-', 'Furanidine', 'Butylene oxide', 'Hydrofuran', 'Tetramethylene oxide', 'Oxacyclopentane', '1,4-Epoxybutane', 'Tetrahydrofuranne', 'Tetraidrofurano', 'Tetrahydrofuraan', 'Tetrahydrofurane', 'Cyclotetramethylene oxide', 'tetrahydro-furan', 'THF', 'Butane, 1,4-epoxy-', 'Cyclotetramethylene', 'RCRA waste number U213', 'NCI-C60560', 'UNII-3N8FZZ6PY4', 'Polytetrahydrofuran', 'NSC 57858', 'Butane .alpha.,.delta.-oxide', 'Butane alpha,delta-oxide', '3N8FZZ6PY4', 'CHEBI:26911', 'MFCD00005356', '24979-97-3', 'Tetrahydrofuran, anhydrous', 'Agrisynth THF', 'tetrahydofurane', 'Tetrahydrofuraan [Dutch]', 'Tetraidrofurano [Italian]', 'Butane, alpha,delta-oxide', 'Tetrahydrofuranne [French]', 'Tetrahydrofuran, Spectrophotometric Grade', 'CCRIS 6276', 'HSDB 125', 'Furan, tetrahydro-, homopolymer', 'EINECS 203-726-8', 'UN2056', 'RCRA waste no. U213', 'oxacyclopentan', 'terahydrofuran', 'terahydrofurane', 'terahyrofuran', 'tetrahydofuran', 'tetrahydorfuran', 'tetrahyrdofuran', 'tetrahyrofuran', 'Furanidin', 'tetraliydrofuran', 'tetra hydrofuran', 'tetra-hydrofuran', 'tetrahy-drofuran', 'tetrahydro furan', 'tetrahydrof uran', 'tetrahydrofu ran', 'tetrahydrofura n', 'tetrahydrofuran-', 'AI3-07570', 'Tetramethylenoxid', 'tet-rahydrofurane', 'tetra-hydrofurane', 'tetrahydro furane', 'tetrahydro-furane', 'tetrahydrofurane-', 'Tetrahydrofuran, contains 250 ppm BHT as inhibitor, ACS reagent, >=99.0%', 'tetra hydro-furan', 'tetra- hydrofuran', 'tetrahydro- furan', 'Butane a,d-oxide', 'Butane,4-epoxy-', 'Dynasolve 150', 'Tetrahydrofuran ACS', '1,4-epoxy-Butane', 'c0019', 'tetrahydrofuran solvent', 'THF (tetrahydrofuran)', 'Tetrahydrofuran, 99%', 'Tetrahydrofuran, Biograde', 'ACMC-1BQ3D', 'DSSTox_CID_1328', 'WLN: T5OTJ', 'Tetrahydrofuran(Stabilized)', 'EC 203-726-8', 'DSSTox_RID_76084', 'Tetrahydrofuran Ultra LC-MS', 'DSSTox_GSID_21328', 'Tetrahydrofuran, ACS reagent', 'Tetrahydrofuran, >=99.5%', 'Tetrahydrofuran, p.a., 99%', 'CHEMBL276521', 'DTXSID1021328', 'Diethylene oxide 1,4-Epoxybutane', 'Tetrahydrofuran Reagent Grade ACS', 'Tetrahydrofuran, UV, HPLC Grade', 'AMY11079', 'NSC57858', 'Tetrahydrofuran, analytical standard', 'ZINC3593622', 'Tox21_201026', 'NSC-57858', 'STL264218', 'AKOS000119982', 'MCULE-3873245085', 'Poly(tetramethylene ether glycol) 650', 'Tetrahydrofuran, (stabilized with BHT)', 'UN 2056', 'Tetrahydrofuran, for HPLC, >=99.9%', 'NCGC00090740-01', 'NCGC00090740-02', 'NCGC00258579-01', 'BP-30232', 'CAS-109-99-9', 'Tetrahydrofuran, purum, >=99.0% (GC)', 'DB-038044', '315-EP0930075A1', '315-EP1441224A2', '315-EP2269977A2', '315-EP2269986A1', '315-EP2269988A2', '315-EP2269989A1', '315-EP2269990A1', '315-EP2269992A1', '315-EP2269993A1', '315-EP2269994A1', '315-EP2269995A1', '315-EP2269999A1', '315-EP2270000A1', '315-EP2270001A1', '315-EP2270003A1', '315-EP2270004A1', '315-EP2270006A1', '315-EP2270008A1', '315-EP2270009A1', '315-EP2270010A1', '315-EP2270011A1', '315-EP2270014A1', '315-EP2270015A1', '315-EP2270017A1', '315-EP2270113A1', '315-EP2270114A1', '315-EP2272509A1', '315-EP2272516A2', '315-EP2272517A1', '315-EP2272537A2', '315-EP2272813A2', '315-EP2272817A1', '315-EP2272822A1', '315-EP2272825A2', '315-EP2272827A1', '315-EP2272828A1', '315-EP2272830A1', '315-EP2272831A1', '315-EP2272832A1', '315-EP2272834A1', '315-EP2272835A1', '315-EP2272837A1', '315-EP2272839A1', '315-EP2272840A1', '315-EP2272841A1', '315-EP2272842A1', '315-EP2272843A1', '315-EP2272844A1', '315-EP2272846A1', '315-EP2272847A1', '315-EP2272848A1', '315-EP2272849A1', '315-EP2272935A1', '315-EP2272972A1', '315-EP2272973A1', '315-EP2274983A1', '315-EP2275102A1', '315-EP2275395A2', '315-EP2275398A1', '315-EP2275401A1', '315-EP2275403A1', '315-EP2275404A1', '315-EP2275407A1', '315-EP2275408A1', '315-EP2275409A1', '315-EP2275410A1', '315-EP2275411A2', '315-EP2275412A1', '315-EP2275413A1', '315-EP2275414A1', '315-EP2275418A1', '315-EP2275419A2', '315-EP2275420A1', '315-EP2275422A1', '315-EP2275427A1', '315-EP2275469A1', '315-EP2277507A1', '315-EP2277848A1', '315-EP2277858A1', '315-EP2277861A1', '315-EP2277865A1', '315-EP2277867A2', '315-EP2277868A1', '315-EP2277869A1', '315-EP2277870A1', '315-EP2277871A1', '315-EP2277872A1', '315-EP2277876A1', '315-EP2277878A1', '315-EP2277879A1', '315-EP2277880A1', '315-EP2277881A1', '315-EP2279750A1', '315-EP2280000A1', '315-EP2280001A1', '315-EP2280003A2', '315-EP2280005A1', '315-EP2280006A1', '315-EP2280007A1', '315-EP2280008A2', '315-EP2280009A1', '315-EP2280011A1', '315-EP2280012A2', '315-EP2280014A2', '315-EP2281810A1', '315-EP2281813A1', '315-EP2281815A1', '315-EP2281817A1', '315-EP2281818A1', '315-EP2281819A1', '315-EP2281820A2', '315-EP2281821A1', '315-EP2281823A2', '315-EP2281824A1', '315-EP2281899A2', '315-EP2283898A1', '315-EP2284149A1', '315-EP2284154A1', '315-EP2284158A1', '315-EP2284159A1', '315-EP2284160A1', '315-EP2284165A1', '315-EP2284166A1', '315-EP2284167A2', '315-EP2284168A2', '315-EP2284169A1', '315-EP2284171A1', '315-EP2284174A1', '315-EP2286795A1', '315-EP2286811A1', '315-EP2287141A1', '315-EP2287147A2', '315-EP2287152A2', '315-EP2287153A1', '315-EP2287154A1', '315-EP2287155A1', '315-EP2287156A1', '315-EP2287161A1', '315-EP2287162A1', '315-EP2287164A1', '315-EP2287165A2', '315-EP2287166A2', '315-EP2287167A1', '315-EP2287168A2', '315-EP2287940A1', '315-EP2289509A2', '315-EP2289868A1', '315-EP2289879A1', '315-EP2289881A1', '315-EP2289883A1', '315-EP2289884A1', '315-EP2289885A1', '315-EP2289887A2', '315-EP2289888A2', '315-EP2289890A1', '315-EP2289892A1', '315-EP2289893A1', '315-EP2289894A2', '315-EP2289897A1', '315-EP2289965A1', '315-EP2292228A1', '315-EP2292234A1', '315-EP2292576A2', '315-EP2292589A1', '315-EP2292592A1', '315-EP2292593A2', '315-EP2292596A2', '315-EP2292597A1', '315-EP2292602A1', '315-EP2292606A1', '315-EP2292607A2', '315-EP2292608A1', '315-EP2292609A1', '315-EP2292610A1', '315-EP2292611A1', '315-EP2292612A2', '315-EP2292614A1', '315-EP2292615A1', '315-EP2292616A1', '315-EP2292617A1', '315-EP2292619A1', '315-EP2292620A2', '315-EP2292621A1', '315-EP2292622A1', '315-EP2292625A1', '315-EP2292628A2', '315-EP2292630A1', '315-EP2295053A1', '315-EP2295138A2', '315-EP2295399A2', '315-EP2295401A2', '315-EP2295402A2', '315-EP2295406A1', '315-EP2295408A1', '315-EP2295409A1', '315-EP2295410A1', '315-EP2295411A1', '315-EP2295412A1', '315-EP2295413A1', '315-EP2295414A1', '315-EP2295415A1', '315-EP2295417A1', '315-EP2295418A1', '315-EP2295420A1', '315-EP2295422A2', '315-EP2295423A1', '315-EP2295425A1', '315-EP2295426A1', '315-EP2295427A1', '315-EP2295432A1', '315-EP2295433A2', '315-EP2295436A1', '315-EP2295437A1', '315-EP2295438A1', '315-EP2295441A2', '315-EP2295503A1', '315-EP2295550A2', '315-EP2298305A1', '315-EP2298312A1', '315-EP2298729A1', '315-EP2298731A1', '315-EP2298734A2', '315-EP2298735A1', '315-EP2298738A1', '315-EP2298743A1', '315-EP2298746A1', '315-EP2298747A1', '315-EP2298749A1', '315-EP2298750A1', '315-EP2298752A1', '315-EP2298753A1', '315-EP2298754A1', '315-EP2298755A1', '315-EP2298756A1', '315-EP2298757A2', '315-EP2298758A1', '315-EP2298759A1', '315-EP2298761A1', '315-EP2298763A1', '315-EP2298766A1', '315-EP2298767A1', '315-EP2298768A1', '315-EP2298769A1', '315-EP2298771A2', '315-EP2298772A1', '315-EP2298773A1', '315-EP2298774A1', '315-EP2298775A1', '315-EP2298776A1', '315-EP2298778A1', '315-EP2298779A1', '315-EP2298828A1', '315-EP2299326A1', '315-EP2301534A1', '315-EP2301536A1', '315-EP2301538A1', '315-EP2301544A1', '315-EP2301627A1', '315-EP2301911A1', '315-EP2301918A1', '315-EP2301921A1', '315-EP2301922A1', '315-EP2301924A1', '315-EP2301926A1', '315-EP2301928A1', '315-EP2301929A1', '315-EP2301930A1', '315-EP2301931A1', '315-EP2301933A1', '315-EP2301934A1', '315-EP2301935A1', '315-EP2301936A1', '315-EP2301937A1', '315-EP2301939A1', '315-EP2301940A1', '315-EP2301983A1', '315-EP2302003A1', '315-EP2305219A1', '315-EP2305248A1', '315-EP2305250A1', '315-EP2305254A1', '315-EP2305257A1', '315-EP2305625A1', '315-EP2305629A1', '315-EP2305633A1', '315-EP2305640A2', '315-EP2305641A1', '315-EP2305642A2', '315-EP2305646A1', '315-EP2305647A1', '315-EP2305648A1', '315-EP2305649A1', '315-EP2305650A1', '315-EP2305651A1', '315-EP2305652A2', '315-EP2305655A2', '315-EP2305657A2', '315-EP2305658A1', '315-EP2305659A1', '315-EP2305660A1', '315-EP2305663A1', '315-EP2305664A1', '315-EP2305667A2', '315-EP2305668A1', '315-EP2305669A1', '315-EP2305671A1', '315-EP2305672A1', '315-EP2305673A1', '315-EP2305674A1', '315-EP2305675A1', '315-EP2305676A1', '315-EP2305677A1', '315-EP2305679A1', '315-EP2305680A2', '315-EP2305682A1', '315-EP2305683A1', '315-EP2305684A1', '315-EP2305687A1', '315-EP2305688A1', '315-EP2305695A2', '315-EP2305696A2', '315-EP2305697A2', '315-EP2305698A2', '315-EP2305769A2', '315-EP2305825A1', '315-EP2308479A2', '315-EP2308510A1', '315-EP2308562A2', '315-EP2308812A2', '315-EP2308828A2', '315-EP2308833A2', '315-EP2308838A1', '315-EP2308839A1', '315-EP2308840A1', '315-EP2308843A1', '315-EP2308848A1', '315-EP2308852A1', '315-EP2308853A1', '315-EP2308854A1', '315-EP2308857A1', '315-EP2308858A1', '315-EP2308861A1', '315-EP2308862A1', '315-EP2308865A1', '315-EP2308866A1', '315-EP2308867A2', '315-EP2308868A1', '315-EP2308869A1', '315-EP2308870A2', '315-EP2308871A1', '315-EP2308872A1', '315-EP2308873A1', '315-EP2308874A1', '315-EP2308875A1', '315-EP2308876A1', '315-EP2308877A1', '315-EP2308878A2', '315-EP2308879A1', '315-EP2308880A1', '315-EP2308882A1', '315-EP2308926A1', '315-EP2308960A1', '315-EP2309564A1', '315-EP2309584A1', '315-EP2311451A1', '315-EP2311455A1', '315-EP2311801A1', '315-EP2311802A1', '315-EP2311803A1', '315-EP2311805A1', '315-EP2311806A2', '315-EP2311808A1', '315-EP2311810A1', '315-EP2311811A1', '315-EP2311812A1', '315-EP2311813A1', '315-EP2311814A1', '315-EP2311815A1', '315-EP2311816A1', '315-EP2311817A1', '315-EP2311818A1', '315-EP2311820A1', '315-EP2311821A1', '315-EP2311822A1', '315-EP2311823A1', '315-EP2311824A1', '315-EP2311825A1', '315-EP2311826A2', '315-EP2311827A1', '315-EP2311829A1', '315-EP2311830A1', '315-EP2311831A1', '315-EP2311832A1', '315-EP2311833A1', '315-EP2311834A1', '315-EP2311835A1', '315-EP2311837A1', '315-EP2311839A1', '315-EP2311840A1', '315-EP2311841A1', '315-EP2311842A2', '315-EP2311850A1', '315-EP2314295A1', '315-EP2314558A1', '315-EP2314574A1', '315-EP2314575A1', '315-EP2314576A1', '315-EP2314578A1', '315-EP2314579A1', '315-EP2314580A1', '315-EP2314582A1', '315-EP2314585A1', '315-EP2314586A1', '315-EP2314587A1', '315-EP2314588A1', '315-EP2314589A1', '315-EP2314590A1', '315-EP2314591A1', '315-EP2315303A1', '315-EP2315502A1', '315-EP2316450A1', '315-EP2316452A1', '315-EP2316824A1', '315-EP2316825A1', '315-EP2316826A1', '315-EP2316827A1', '315-EP2316829A1', '315-EP2316830A2', '315-EP2316831A1', '315-EP2316832A1', '315-EP2316833A1', '315-EP2316835A1', '315-EP2316836A1', '315-EP2316837A1', '315-EP2316905A1', '315-EP2316906A2', '315-EP2316974A1', '315-EP2371795A1', '315-EP2371797A1', '315-EP2371798A1', '315-EP2371800A1', '315-EP2371805A1', '315-EP2371811A2', '315-EP2371813A1', '315-EP2371814A1', '315-EP2371823A1', '315-EP2371831A1', '315-EP2374454A1', '315-EP2374783A1', '315-EP2374788A1', '315-EP2374790A1', '315-EP2377841A1', '315-EP2377847A1', '315-EP2378585A1', '315-EP2380568A1', '315-EP2380871A1', '315-EP2380873A1', '315-EP2380874A2', 'FT-0645046', 'FT-0696552', 'T0104', 'T0856', 'T2394', 'V2193', 'Tetrahydrofuran, SAJ first grade, >=99.0%', 'Tetrahydrofuran, Selectophore(TM), >=99.5%', '4434-EP2270008A1', '4434-EP2272491A1', '4434-EP2272509A1', '4434-EP2272537A2', '4434-EP2272826A1', '4434-EP2272827A1', '4434-EP2275403A1', '4434-EP2275423A1', '4434-EP2281822A1', '4434-EP2287153A1', '4434-EP2287154A1', '4434-EP2289883A1', '4434-EP2289891A2', '4434-EP2292589A1', '4434-EP2292617A1', '4434-EP2295423A1', '4434-EP2295428A2', '4434-EP2298761A1', '4434-EP2305647A1', '4434-EP2305660A1', '4434-EP2305679A1', '4434-EP2308849A1', '4434-EP2308850A1', '4434-EP2308851A1', '4434-EP2308874A1', '4434-EP2314576A1', '4434-EP2314577A1', '4434-EP2314591A1', '4434-EP2315502A1', '4434-EP2371797A1', '4434-EP2371798A1', '4434-EP2371813A1', '4434-EP2377847A1', '6961-EP2270010A1', '6961-EP2272813A2', '6961-EP2275395A2', '6961-EP2289887A2', '6961-EP2289888A2', '6961-EP2292593A2', '6961-EP2316470A2', '6961-EP2316832A1', '6961-EP2316833A1', 'Tetrahydrofuran [UN2056]  [Flammable liquid]', 'Tetrahydrofuran HPLC grade stabilized with BHT', 'Tetrahydrofuran, JIS special grade, >=99.5%', '97554-EP2305662A1', '97554-EP2372017A1', '97554-EP2377848A1', 'Tetrahydrofuran, HPLC grade stabilized with BHT', 'A802124', 'Q278332', 'Tetrahydrofuran, for HPLC, contains No stabilizer', 'Tetrahydrofuran, inhibitor-free, purification grade', 'Tetrahydrofuran, puriss. p.a., >=99.9% (GC)', 'J-002358', 'Tetrahydrofuran, for luminescence, >=99.5% (GC)', 'Tetrahydrofuran, inhibitor-free, for HPLC, =99.9%', 'Tetrahydrofuran, anhydrous, >=99.9%, inhibitor-free', 'Tetrahydrofuran, for HPLC, >=99.9%, inhibitor-free', 'Tetrahydrofuran, inhibitor-free, for HPLC, >=99.9%', 'Tetrahydrofuran, anhydrous stabilized, Max. water 20ppm', 'Tetrahydrofuran, anhydrous stabilized, Max. water 25ppm', 'Tetrahydrofuran, HPLC grade, >=99.9%, inhibitor-free', 'Tetrahydrofuran, non-UV, HPLC grade stabilized with BHT', 'Tetrahydrofuran, biotech. grade, >=99.9%, Inhibitor-free', 'Tetrahydrofuran, for amino acid analysis, without stabilizer', 'Tetrahydrofuran, p.a., 99%, contains 200-300 ppm BHT', 'Tetrahydrofuran solution, contains 20 % (v/v) 1,2-Propanediol', 'Tetrahydrofuran, HPLC, UV-IR, isocratic grade, unstabilized', 'Tetrahydrofuran, anhydrous, inhibitor-free, ZerO2(TM), >=99.9%', 'Tetrahydrofuran, AR, contains 250 ppm BHT as stabilizer, 99.5%', 'Tetrahydrofuran, LR, contains 250 ppm BHT as stabilizer, >=99%', 'Tetrahydrofuran, spectrophotometric grade, >=99.5%, inhibitor-free', 'Tetrahydrofuran, ACS reagent, >=99.0%, contains 250 ppm BHT as inhibitor', 'Tetrahydrofuran, anhydrous, >=99.9%, contains 250 ppm BHT as inhibitor', 'Tetrahydrofuran, anhydrous, contains 250 ppm BHT as inhibitor, >=99.9%', 'Tetrahydrofuran, anhydrous, contains 250 ppm BHT as stabilizer, >=99.5%', 'Tetrahydrofuran, UV HPLC spectroscopic, 99.8%, contains 200-300 ppm BHT', 'Tetrahydrofuran, Pharmaceutical Secondary Standard; Certified Reference Material', 'Tetrahydrofuran, ReagentPlus(R), >=99.0%, contains 250 ppm BHT as inhibitor', 'Tetrahydrofuran, absolute, over molecular sieve (H2O <=0.005%), contains ~0.025% 2,6-di-tert-butyl-4-methylphenol as stabilizer, >=99.5% (GC)', 'Tetrahydrofuran, anhydrous, 99.8+%, BHT-free, over molecular sieves, packaged under Argon in resealable ChemSeal bottles', 'Tetrahydrofuran, contains 250 ppm BHT as inhibitor, puriss. p.a., ACS reagent, Reag. Ph. Eur., >=99.9%', 'Tetrahydrofuran, Vetec(TM) reagent grade, anhydrous, contains 100 ppm BHT as inhibitor, >=99.8%']"
140;ethanethioamide;1;C2H5NS;75.14;CC(=S)N;2723949;202.4;;;-75.8;;;-13.1;-10.8;-10.5;;;4.7;;"['THIOACETAMIDE', 'Ethanethioamide', '62-55-5', 'Acetothioamide', 'Thiacetamide', 'Acetamide, thio-', 'Thioacetimidic acid', 'Acetimidic acid, thio-', 'USAF CB-21', 'USAF EK-1719', 'RCRA waste number U218', 'TAA', 'Acetic acid, thiono-, amide', 'methylthioamide', 'thioacetoamide', 'Thioactamide', 'NSC 2120', 'acetic acid thioamide', 'UNII-075T165X8M', 'MFCD00008070', 'CHEBI:32497', '075T165X8M', 'Thiacetamid', 'CCRIS 584', 'Ethanimidothioic acid', 'HSDB 1318', 'EINECS 200-541-4', 'RCRA waste no. U218', 'C2H5NS', 'thioacteamide', 'thioacetamide ts', 'AI3-17220', 'CH3CSNH2', 'DSSTox_CID_1340', 'bmse000781', 'Thioacetamide, ACS reagent', 'EC 200-541-4', 'WLN: ZY1&US', 'DSSTox_RID_76094', 'DSSTox_GSID_21340', 'Ethanethioamide;Acetothioamide', 'CHEMBL38737', 'ACMC-209n54', 'DTXSID9021340', 'YUKQRDCYNOVPGJ-UHFFFAOYSA-', 'NSC2120', 'Acetamide, thio- (VAN) (8CI)', 'BCP30336', 'NSC-2120', 'STR00411', 'Thioacetamide, reagent grade, 98%', 'Tox21_301295', 'STL199139', 'ZINC40454337', 'AKOS000119931', 'CS-W018499', 'MCULE-4635097605', 'CAS-62-55-5', 'NCGC00257539-01', 'Thioacetamide, ACS reagent, >=99.0%', 'BP-10926', 'Thioacetamide, p.a., ACS reagent, 99%', 'DB-000689', 'FT-0631278', 'T0187', 'AZ0001-0070', 'Thioacetamide, Vetec(TM) reagent grade, 98%', 'C19302', 'D70870', '10791-EP2292227A2', '10791-EP2301536A1', '10791-EP2301538A1', '10791-EP2308856A1', '10791-EP2311455A1', '10791-EP2316452A1', '67512-EP2292227A2', '67512-EP2292621A1', '67512-EP2308839A1', 'A833844', 'Q416253', 'J-520440', 'F0001-1649', 'Thioacetamide, ACS reagent, for the precipitation (of heavy metals), >=99.0%']"
141;N,N-dibutylbutan-1-amine;1;C12H27N;185.35;CCCCN(CCCC)CCCC;7622;;;;;;;-3.6;-5.3;-7.1;;;18.1;;['TRIBUTYLAMINE', '102-82-9', 'Tri-n-butylamine', '1-Butanamine, N,N-dibutyl-', 'N,N-dibutylbutan-1-amine', 'N,N-Dibutyl-1-butanamine', 'Tributilamina', 'Tris[N-butylamine]', 'UNII-C3TZB2W0R7', 'C3TZB2W0R7', 'CHEBI:38905', 'MFCD00009431', 'DSSTox_CID_6183', 'Tris-n-butylamine', 'Amine, tributyl-', 'DSSTox_RID_78050', 'DSSTox_GSID_26183', 'Tributilamina [Romanian]', 'CAS-102-82-9', 'CCRIS 4879', 'HSDB 877', 'EINECS 203-058-7', 'UN2542', 'BRN 1698872', 'tributylamin', 'tributyl amine', 'tributyl-amine', 'trin-butylamine', 'tri n-butylamin', 'tri-butyl amine', 'AI3-15424', 'tri-n-butyl amine', 'tri-n-butyl-amine', 'Tri(n-butyl)amine', 'tris(1-butyl)amine', 'N,N-dibutylbutanamine', 'Bu3N', 'NBu3', 'n-Bu3N', 'SCHEMBL896', 'N(n-Bu)3', 'EC 203-058-7', 'Tributylamine, >=98.5%', 'N,N-Dibutyl-1-butanamine #', '(n-C4H9)3N', 'CHEMBL1877658', 'DTXSID4026183', 'ACMC-209834', 'ZINC1675345', 'Tox21_200423', 'Tox21_300020', 'BBL011498', 'STL146610', 'Tributylamine [UN2542]  [Poison]', 'AKOS005721142', 'MCULE-8337061670', 'UN 2542', 'NCGC00164374-01', 'NCGC00164374-02', 'NCGC00164374-03', 'NCGC00254008-01', 'NCGC00257977-01', 'BP-30098', 'VS-02963', 'FT-0652663', 'T0357', 'EN300-19754', 'Tributylamine, puriss. plus, >=99.5% (GC)', 'Tributylamine, puriss. p.a., >=99.0% (GC)', 'Q905558', 'J-000810', 'J-525054', 'F0001-0072', 'Z137965122']