Number;IUPAC_name;Charge;Molecular Formula;Molecular Weight [g/mol];Isomeric SMILES;Pubchem CID;GasPhaseAcidity_B2PLYP//DLPNO-CCSD(T) [kcal/mol];GSolv_Ion_Water [kcal/mol];GSolv_Ion_DMSO [kcal/mol];GSolv_Ion_Acetonitrile [kcal/mol];GSolv_Ion_MeOH [kcal/mol];Gsolv_Neutral_Water_exp [kcal/mol];Gsolv_Neutral_DMSO_TZVPD-Fine [kcal/mol];Gsolv_Neutral_Acetonitrile_TZVPD-Fine [kcal/mol];Gsolv_Neutral_MeOH_TZVPD-Fine [kcal/mol];pka_water;pka_DMSO;pka_Acetonitrile;pka_MeOH;Synonyms
63;phenylmethanol;-1;C7H8O;108.14;C1=CC=C(C=C1)CO;244;364.2;-88.8;;;;-6.6;-9.5;-8.4;-9.0;15.4;;;;"['benzyl alcohol', 'phenylmethanol', 'benzenemethanol', '100-51-6', 'phenylcarbinol', 'Benzoyl alcohol', 'benzylalcohol', 'Benzenecarbinol', 'Hydroxytoluene', 'Phenylmethyl alcohol', 'alpha-Toluenol', '(Hydroxymethyl)benzene', 'Phenolcarbinol', 'Benzal alcohol', 'alpha-hydroxytoluene', 'benzylic alcohol', 'Alcool benzylique', 'Benzylicum', 'Methanol, phenyl-', 'Phenylcarbinolum', 'hydroxymethylbenzene', 'Phenyl-Methanol', 'BENZYL-ALCOHOL', 'Euxyl K 100', 'Bentalol', 'Aromatic alcohol', 'Caswell No. 081F', '.alpha.-Toluenol', 'Benzyl alcohol (natural)', 'Alcool benzilico [DCIT]', 'Itch-X', 'alcoholum benzylicum', 'NCI-C06111', 'benzenmethanol', '.alpha.-Hydroxytoluene', 'Benzylalkohol', 'FEMA No. 2137', 'Aromatic primary alcohol', '66072-40-0', 'Alcool benzylique [INN-French]', 'Benzyl alkohol', 'Alcohol bencilico [INN-Spanish]', 'Methanol benzene', 'Alcoholum benzylicum [INN-Latin]', 'UNII-LKG8494WBH', 'NSC 8044', 'HOCH-Ph-polymer', 'BnOH', 'Benzyl alcohol Natural', 'MFCD00004599', 'TOLUENE,ALPHA-HYDROXY', 'LKG8494WBH', 'CHEBI:17987', 'NSC-8044', 'Hydroxymethyl resin (100-200 mesh)', 'Hydroxymethyl resin (200-400 mesh)', 'NCGC00091865-01', 'Phenyl Methanol', 'DSSTox_CID_152', 'DSSTox_RID_75404', 'DSSTox_GSID_20152', '185532-71-2', 'MBN', 'Ulesfia', 'Alcool benzilico', 'Alcohol bencilico', 'phenylmethan-1-ol', 'CAS-100-51-6', 'HSDB 46', 'Ulesfia (TN)', 'CCRIS 2081', 'Benzyl alcohol [USAN:INN:JAN]', 'EINECS 202-859-9', 'EPA Pesticide Chemical Code 009502', 'BRN 0878307', 'enzylalcohol', 'Benzalalcohol', 'Benzalcohol', 'Bentanol', 'Benzyl alcohol, polymer-bound', 'Alcoolbenzylique', 'benzene-methanol', 'Benzyl Alcohole', 'a-Hydroxytoluene', 'a-Toluenol', 'AI3-01680', 'Benzyl alcohol [INN:JAN:NF]', 'OBZ', 'HOCH2-Ph-polymer', 'Sunmorl BK 20', 'Nat. Benzyl Alcohol', 'PhCH2OH', '201740-95-6', 'Bn-OH', 'Benzyl alcohol-13C6', 'ACMC-1BQPG', 'SCHEMBL147', 'Benzyl alcohol, ACS grade', 'bmse000407', 'C6H5CH2OH', 'CHEMBL720', 'EC 202-859-9', 'WLN: Q1R', 'PINAPUR&trade; 9 BA-R', 'Benzyl alcohol (JP15/NF)', '4-06-00-02222 (Beilstein Handbook Reference)', 'BIDD:ER0248', 'TB 13G', 'Benzyl alcohol, LR, >=99%', 'Benzyl alcohol (Benzenemethanol)', 'DTXSID5020152', 'BDBM16418', 'INS NO.1519', 'NSC8044', 'Benzyl alcohol (JP17/NF/INN)', 'Benzyl Alcohol Reagent ACS Grade', 'HMS3264B16', 'HMS3885F10', 'Pharmakon1600-01502555', 'ZINC895302', 'Benzyl alcohol, analytical standard', 'Benzyl alcohol, AR, >=99.5%', 'HY-B0892', 'INS-1519', 'Benzyl alcohol, anhydrous, 99.8%', 'Tox21_111172', 'Tox21_202447', 'Tox21_300044', 'BBL011938', 'MFCD03792087', 'NSC760098', 's4600', 'STL163453', 'Benzyl alcohol, >=99%, FCC, FG', 'AKOS000119907', 'AS04466', 'Benzyl alcohol, natural, >=98%, FG', 'CCG-213843', 'DB06770', 'LS41488', 'MCULE-6011707909', 'NSC-760098', 'NCGC00091865-02', 'NCGC00091865-03', 'NCGC00091865-04', 'NCGC00254154-01', 'NCGC00259996-01', 'Benzyl alcohol, ACS reagent, >=99.0%', 'Benzyl alcohol, ReagentPlus(R), >=99%', 'Benzyl alcohol, USP, 98.0-100.5%', 'I765', 'Benzyl alcohol on polystyrene, 3.5 mmol/g', 'B2378', 'Benzyl alcohol, tested according to Ph.Eur.', 'Benzylalcohol 100 microg/mL in Acetonitrile', 'E1519', 'FT-0622812', 'Benzyl alcohol, p.a., ACS reagent, 99.0%', 'Benzyl alcohol, SAJ first grade, >=98.5%', '3983-EP2269992A1', '3983-EP2270004A1', '3983-EP2270005A1', '3983-EP2270011A1', '3983-EP2270505A1', '3983-EP2272516A2', '3983-EP2272813A2', '3983-EP2272817A1', '3983-EP2272822A1', '3983-EP2272825A2', '3983-EP2272841A1', '3983-EP2274983A1', '3983-EP2275102A1', '3983-EP2275401A1', '3983-EP2275411A2', '3983-EP2275414A1', '3983-EP2275425A1', '3983-EP2277565A2', '3983-EP2277566A2', '3983-EP2277567A1', '3983-EP2277568A2', '3983-EP2277569A2', '3983-EP2277570A2', '3983-EP2277848A1', '3983-EP2277867A2', '3983-EP2277876A1', '3983-EP2277879A1', '3983-EP2279750A1', '3983-EP2280001A1', '3983-EP2280003A2', '3983-EP2280005A1', '3983-EP2280008A2', '3983-EP2280010A2', '3983-EP2280012A2', '3983-EP2281823A2', '3983-EP2284149A1', '3983-EP2284160A1', '3983-EP2287155A1', '3983-EP2287160A1', '3983-EP2287165A2', '3983-EP2287166A2', '3983-EP2289884A1', '3983-EP2289887A2', '3983-EP2289888A2', '3983-EP2289892A1', '3983-EP2289894A2', '3983-EP2292227A2', '3983-EP2292280A1', '3983-EP2292596A2', '3983-EP2292611A1', '3983-EP2292612A2', '3983-EP2292614A1', '3983-EP2292615A1', '3983-EP2292620A2', '3983-EP2295402A2', '3983-EP2295406A1', '3983-EP2295411A1', '3983-EP2295412A1', '3983-EP2295413A1', '3983-EP2295426A1', '3983-EP2295427A1', '3983-EP2295437A1', '3983-EP2295550A2', '3983-EP2298731A1', '3983-EP2298734A2', '3983-EP2298735A1', '3983-EP2298743A1', '3983-EP2298744A2', '3983-EP2298750A1', '3983-EP2298755A1', '3983-EP2298768A1', '3983-EP2298772A1', '3983-EP2298775A1', '3983-EP2298783A1', '3983-EP2301918A1', '3983-EP2301931A1', '3983-EP2301936A1', '3983-EP2305243A1', '3983-EP2305636A1', '3983-EP2305640A2', '3983-EP2305651A1', '3983-EP2305673A1', '3983-EP2305676A1', '3983-EP2305695A2', '3983-EP2305696A2', '3983-EP2305697A2', '3983-EP2305698A2', '3983-EP2305808A1', '3983-EP2308812A2', '3983-EP2308828A2', '3983-EP2308833A2', '3983-EP2308839A1', '3983-EP2308844A2', '3983-EP2308845A2', '3983-EP2308846A2', '3983-EP2308854A1', '3983-EP2308857A1', '3983-EP2308858A1', '3983-EP2308861A1', '3983-EP2308867A2', '3983-EP2308870A2', '3983-EP2308872A1', '3983-EP2308873A1', '3983-EP2308875A1', '3983-EP2308877A1', '3983-EP2311806A2', '3983-EP2311815A1', '3983-EP2311816A1', '3983-EP2311817A1', '3983-EP2311823A1', '3983-EP2311824A1', '3983-EP2311829A1', '3983-EP2311831A1', '3983-EP2311834A1', '3983-EP2311837A1', '3983-EP2311842A2', '3983-EP2314575A1', '3983-EP2314584A1', '3983-EP2314585A1', '3983-EP2316470A2', '3983-EP2316829A1', '3983-EP2316831A1', '3983-EP2316834A1', '3983-EP2316835A1', '3983-EP2316836A1', '3983-EP2372017A1', '3983-EP2374454A1', '3983-EP2374783A1', '3983-EP2374790A1', '3983-EP2374792A1', '3983-EP2380568A1', 'A14564', 'Benzyl alcohol, SAJ special grade, >=99.0%', 'Benzyl alcohol, Vetec(TM) reagent grade, 98%', 'C00556', 'C03485', 'D00077', 'D70182', 'E-1519', 'Q52353', 'AB01563201_01', 'A800221', 'SR-01000872610', 'J-000153', 'SR-01000872610-3', 'F0001-0019', 'Z955123784', '3762963D-6C2A-4BFF-AD94-3180E51BCA68', 'Benzyl alcohol, certified reference material, TraceCERT(R)', 'Benzyl alcohol, European Pharmacopoeia (EP) Reference Standard', 'Benzyl alcohol, puriss. p.a., ACS reagent, >=99.0% (GC)', 'Benzyl alcohol, United States Pharmacopeia (USP) Reference Standard', '(Hydroxymethyl)polystyrene, 200-400 mesh, extent of labeling: ~1.7 mmol/g loading', '(Hydroxymethyl)polystyrene, 200-500 mesh, extent of labeling: ~1.1 mmol/g loading', 'Benzyl alcohol, Pharmaceutical Secondary Standard; Certified Reference Material', 'Benzyl alcohol, PharmaGrade, USP/NF, Ph Eur, Manufactured under appropriate GMP controls for pharma or biopharmaceutical production.', 'Benzyl alcohol, polymer-bound, 100-200 mesh, extent of labeling: 0.5-1.0 mmol/g loading, 1 % cross-linked', 'Benzyl alcohol, polymer-bound, 100-200 mesh, extent of labeling: 1.0-2.0 mmol/g loading, 1 % cross-linked with divinylbenzene', 'Benzyl alcohol, polymer-bound, 70-90 mesh, extent of labeling: 0.5-1.0 mmol/g loading, 1 % cross-linked with divinylbenzene', 'Benzyl alcohol, polymer-bound, 70-90 mesh, extent of labeling: 1.0-1.5 mmol/g loading, 1 % cross-linked', 'Benzyl alcohol, polymer-bound, 70-90 mesh, extent of labeling: 2.0-3.0 mmol loading, 1 % cross-linked', 'Benzyl alcohol, puriss., meets analytical specification of Ph.??Eur., BP, NF, 99-100.5% (GC)', 'StratoSpheres(TM) PL-HMS (Hydroxymethylstyrene) resin, 50-100 mesh, extent of labeling: 2.0 mmol loading, 1 % cross-linked']"
64;2-methoxyethanol;-1;C3H8O2;76.09;COCCO;8019;370.1;-95.7;;;;-6.8;-6.2;-5.7;-6.3;14.8;;;;"['2-METHOXYETHANOL', '109-86-4', 'Ethylene glycol monomethyl ether', 'Methyl cellosolve', 'Ethanol, 2-methoxy-', 'Methyl oxitol', 'Methoxyethanol', '2-Methoxy-1-ethanol', 'Methylglykol', '3-Oxa-1-butanol', 'Monomethyl glycol', 'EGME', 'Glycol ether EM', 'Dowanol EM', 'Methoxyhydroxyethane', 'Poly-Solv EM', '1-Hydroxy-2-methoxyethane', 'Glycol monomethyl ether', 'Prist', 'MECS', 'Metil cellosolve', 'Jeffersol EM', '2-Metossietanolo', 'Amsco-Solv EE', '2-Methoxy-aethanol', 'Polyethylene glycol monomethyl ether', 'Methylcelosolv', 'Metoksyetylowy alkohol', 'Ethylene glycol methyl ether', '2-Methoxyethyl alcohol', '2-methoxy ethanol', 'HOCH2CH2OCH3', 'beta-Methoxyethanol', 'Methoxy polyethylene glycol', 'monomethoxypolyethylene glycol', 'Monomethyl ether of ethylene glycol', '.beta.-Methoxyethanol', 'Aethylenglykol-monomethylaether', 'Ethyleneglycol monomethyl ether', 'Monoethylene glycol methyl ether', 'Monomethyl ethylene glycol ether', 'UNII-EK1L6XWI56', 'Glycolmethyl ether', 'NSC 1258', '2-Hydroxyethyl methyl ether', '2-methoxy-ethanol', ""Ether monomethylique de l'ethylene-glycol"", 'Methoxypolyethylene glycol', 'MFCD00002867', 'EK1L6XWI56', 'ethylene glycol monomethylether', 'DTXSID5024182', 'CHEBI:46790', 'Karl Fischer Reagent', 'MPEG', 'methylcellosolve', 'Methyl-cellosolve', 'Dowanol 7', 'Karl Fischer Reagent Diluent', 'Caswell No. 551', 'Methylglykol [German]', '2-Methoxyethan-1-Ol', 'Methylcelosolv [Czech]', 'Metil cellosolve [Italian]', '2-Metossietanolo [Italian]', 'HSDB 97', '2-Methoxy-aethanol [German]', 'CCRIS 5826', 'Metoksyetylowy alkohol [Polish]', 'Polyethylene glycol methyl ether', 'EINECS 203-713-7', 'UN1188', 'EPA Pesticide Chemical Code 042202', 'Aethylenglykol-monomethylaether [German]', 'BRN 1731074', '2methoxyethanol', 'Methyl ethoxol', 'Methyl icinol', 'AI3-18363', 'ethylene glycol-monomethyl ether', 'methylcello-solve', 'Ektasolve EM', 'O-Methyl Glycol', '2-methoxylethanol', '2 -methoxyethanol', 'Ethanol, methoxy-', 'Poly(ethylene glycol methyl ether)', ""Ether monomethylique de l'ethylene-glycol [French]"", '2-(methoxy)ethanol', 'EINECS 251-174-1', '2-(methyloxy)ethanol', 'Methyl Cellosolve(R)', '32718-54-0', 'MOE', 'DSSTox_CID_4182', 'EC 203-713-7', '2-Methoxyethanol ACS grade', 'methoxypoly(ethylene glycol)', 'DSSTox_RID_77319', 'DSSTox_GSID_24182', 'ethyleneglycol monomethylether', '4-01-00-02375 (Beilstein Handbook Reference)', 'WLN: Q2O1', 'ACMC-20994l', 'CHEMBL444144', 'dimethyleneglycol monomethylether', 'CHEBI:53449', 'NSC1258', 'NSC-1258', 'Polyethylene glycol monomethyl ester', 'ZINC1591817', 'Tox21_301080', 'STK399974', '2-Methoxyethanol, analytical standard', '2-Methoxyethanol, anhydrous, 99.8%', 'AKOS000119041', 'DB02806', 'MCULE-4751927883', 'UN 1188', 'NCGC00163767-01', 'NCGC00163767-02', 'NCGC00163767-03', 'NCGC00163767-04', 'NCGC00254981-01', '2-Methoxyethanol, for synthesis, 99.0%', 'alpha-hydro-omega-methoxypoly(oxyethylene)', 'BP-13395', 'CAS-109-86-4', 'Ethylene glycol monomethyl ether (EGMEE)', 'NCI60_000597', 'Polyethylene glycol monomethyl ester (NF)', 'S682', '2-Methoxyethanol, for HPLC, >=99.9%', '2-Methoxyethanol 500 microg/mL in Methanol', 'FT-0626334', 'FT-0689213', 'FT-0700869', 'M0111', '2-Methoxyethanol, SAJ first grade, >=99.0%', 'Carbowax sentry methoxypolyethylene glycol (TN)', 'D05554', '15251-EP2274983A1', '15251-EP2275102A1', '15251-EP2275413A1', '15251-EP2275427A1', '15251-EP2280011A1', '15251-EP2281821A1', '15251-EP2287156A1', '15251-EP2289892A1', '15251-EP2295426A1', '15251-EP2295427A1', '15251-EP2298743A1', '15251-EP2301928A1', '15251-EP2305652A2', '15251-EP2305667A2', '15251-EP2305825A1', '15251-EP2308857A1', '15251-EP2308864A1', '15251-EP2314586A1', '15251-EP2316832A1', '15251-EP2316833A1', '15251-EP2371823A1', '15251-EP2380568A1', '2-Methoxyethanol, JIS special grade, >=99.0%', '73916-EP2269986A1', '73916-EP2272849A1', '73916-EP2274983A1', '73916-EP2275469A1', '73916-EP2284165A1', '73916-EP2287940A1', '73916-EP2289965A1', '73916-EP2292597A1', '73916-EP2298753A1', '73916-EP2298828A1', '73916-EP2301983A1', '73916-EP2302003A1', '73916-EP2308926A1', '73916-EP2309564A1', '73916-EP2371809A1', '73916-EP2380568A1', '73916-EP2380873A1', '73983-EP2269978A2', '73983-EP2269985A2', '73983-EP2269991A2', '73983-EP2284150A2', '73983-EP2284151A2', '73983-EP2284152A2', '73983-EP2284153A2', '73983-EP2284155A2', '73983-EP2284156A2', '73983-EP2284164A2', '73983-EP2287140A2', '73983-EP2287148A2', '73983-EP2287150A2', '73983-EP2295419A2', '73983-EP2301928A1', '73983-EP2305637A2', '73983-EP2309505A1', '73983-EP2380568A1', '97288-EP2295426A1', '97288-EP2295427A1', '97288-EP2305688A1', '2-METHOXY-ETHANOL  (GLYCOLMONOETHYLETHER)', 'Q903362', 'Ethylene Glycol Monomethyl Ether Reagent Grade ACS', 'J-509861', 'F1908-0118', '2-Methoxyethanol, for amino acid analysis, >=99.5% (GC)', '2-Methoxyethanol, suitable for amino acid analysis, >=99.0%', 'Ethylene glycol monomethyl ether [UN1188]  [Flammable liquid]', '2-Methoxyethanol, contains 50 ppm BHT as stabilizer, ACS reagent, >=99.3%', '2-Methoxyethanol, Pharmaceutical Secondary Standard; Certified Reference Material', '2-Methoxyethanol, puriss. p.a., ACS reagent, reag. Ph. Eur., >=99.5% (GC)', '2-Methoxyethanol, ReagentPlus(R), >=99.0%, contains 50 ppm BHT as stabilizer']"