Number;IUPAC_name;Charge;Molecular Formula;Molecular Weight [g/mol];Isomeric SMILES;Pubchem CID;GasPhaseAcidity_B2PLYP//DLPNO-CCSD(T) [kcal/mol];GSolv_Ion_Water [kcal/mol];GSolv_Ion_DMSO [kcal/mol];GSolv_Ion_Acetonitrile [kcal/mol];GSolv_Ion_MeOH [kcal/mol];Gsolv_Neutral_Water_exp [kcal/mol];Gsolv_Neutral_DMSO_TZVPD-Fine [kcal/mol];Gsolv_Neutral_Acetonitrile_TZVPD-Fine [kcal/mol];Gsolv_Neutral_MeOH_TZVPD-Fine [kcal/mol];pka_water;pka_DMSO;pka_Acetonitrile;pka_MeOH;Synonyms
215;2,2,2-trifluoroacetic acid;-1;C2HF3O2;114.02;C(=O)(C(F)(F)F)O;6422;317.5;;-62.0;-46.8;;;-10.2;-7.6;-8.3;;3.5;12.7;;"['Trifluoroacetic acid', '76-05-1', 'Perfluoroacetic acid', 'Trifluoracetic acid', 'Trifluoroethanoic acid', '2,2,2-trifluoroacetic acid', 'Acetic acid, trifluoro-', 'trifluoroaceticacid', 'trifluoro acetic acid', 'TFA', 'trifluoro-acetic acid', 'Kyselina trifluoroctova', 'CF3COOH', 'trifluroacetic acid', 'MFCD00004169', 'NSC 77366', 'triflouroacetic acid', 'UNII-E5R8Z4G708', 'triflouro acetic acid', 'Acetic acid, 2,2,2-trifluoro-', 'water-trifluoroacetic acid', 'peptide trifluoroacetic acid', 'Acetic acid-d, trifluoro-', 'wash buffer', '2,2,2-trifluoro-acetic acid', 'C2HF3O2', 'DTXSID9041578', 'CHEBI:45892', 'Trifluoroacetic acid, HPLC Grade', 'E5R8Z4G708', 'Trifluoroacetic acid, biochemical grade', 'Acetic acid-d, 2,2,2-trifluoro-', 'r3, trifluoroacetic acid', '0.1% TFA in Water', 'r4a, trifluoroacetic acid', '0.1% TFA in ACN', '0.1% TFA in ACN,', '0.1% Trifluoroacetic Acid in Water (v/v)', 'Trifluoroacetic acid, ReagentPlus(R), 99%', 'Kyselina trifluoroctova [Czech]', '0.1% Trifluoroacetic Acid in Acetonitrile (v/v)', 'EINECS 200-929-3', 'UN2699', 'IPC-PFFA-2', 'BRN 0742035', 'AI3-28549', 'trifluoraceticacid', 'trifluroaceticacid', 'Aceticacid, 2,2,2-trifluoro-', 'Trifluoressigsaure', 'HSDB 7508', 'Trifluoressigsaeure', 'trifloroacetic acid', 'trifluoroactic acid', 'trifiuoroacetic acid', 'trifluoro aceticacid', 'trifluoroacetic aicd', 'trifluoroacetic-acid', 'trifluoroacteic acid', 'tri-fluoroacetic acid', 'acide trifluoroacetique', 'tri-fluoro acetic acid', 'trifluoro- acetic acid', 'F3CCOOH', 'WLN: QVXFFF', 'CF3CO2H', 'F3CCO2H', 'Perfluoroalkyl carboxylates', 'SCHEMBL474', '0.1% TFA in water,', '0.1% TFA in water;', 'CF3C(O)OH', 'EC 200-929-3', '2,2,2-trifluoracetic acid', 'NCIOpen2_000728', '1,1,1 trifluoroacetic acid', '2,2,2-triflouroacetic acid', 'Trifluoroacetic acid 99%Min', '4-02-00-00458 (Beilstein Handbook Reference)', '0.05% TFA in ACN', '2,2,2,-trifluoroacetic acid', 'CHEMBL506259', 'AMY3605', 'DTXSID00893893', 'DTXSID80892980', '1w70', 's836', 'ACMC-209770', 'ACT08924', 'CS-B0890', 'NSC77366', 'ZINC3860798', 'NSC-77366', 'STL264183', 'Trifluoroacetic acid (Peptide Grade)', 'Trifluoroacetic acid, commercial grade', 'AKOS000118999', 'Trifluoroacetic acid (ACD/Name 4.0)', 'Trifluoroacetic acid, p.a., 99.8%', 'MCULE-9976402631', 'SB13471', 'UN 2699', 'VZ36984', 'Perfluoroalkyl (linear) carboxylic acids', 'Trifluoroacetic acid, analytical standard', 'BP-20560', 'DS-003453', 'FT-0645072', 'Q0053', 'T0431', 'Trifluoroacetic acid, for HPLC, >=99.0%', 'Trifluoroacetic acid, peptide synthesis grade', 'Trifluoroacetic acid, Ultrapure for synthesis', 'Trifluoroacetic acid [UN2699]  [Corrosive]', '2561-EP1441224A2', '2561-EP2269610A2', '2561-EP2269977A2', '2561-EP2269978A2', '2561-EP2269985A2', '2561-EP2269988A2', '2561-EP2269989A1', '2561-EP2269990A1', '2561-EP2269991A2', '2561-EP2269992A1', '2561-EP2270001A1', '2561-EP2270003A1', '2561-EP2270004A1', '2561-EP2270006A1', '2561-EP2270007A1', '2561-EP2270011A1', '2561-EP2270012A1', '2561-EP2270013A1', '2561-EP2270014A1', '2561-EP2270505A1', '2561-EP2272509A1', '2561-EP2272516A2', '2561-EP2272517A1', '2561-EP2272537A2', '2561-EP2272817A1', '2561-EP2272822A1', '2561-EP2272825A2', '2561-EP2272827A1', '2561-EP2272832A1', '2561-EP2272834A1', '2561-EP2272835A1', '2561-EP2272844A1', '2561-EP2272848A1', '2561-EP2275102A1', '2561-EP2275105A1', '2561-EP2275401A1', '2561-EP2275404A1', '2561-EP2275407A1', '2561-EP2275411A2', '2561-EP2275412A1', '2561-EP2275414A1', '2561-EP2275421A1', '2561-EP2277848A1', '2561-EP2277861A1', '2561-EP2277866A1', '2561-EP2277867A2', '2561-EP2277875A2', '2561-EP2277877A1', '2561-EP2277878A1', '2561-EP2277880A1', '2561-EP2277898A2', '2561-EP2280001A1', '2561-EP2280003A2', '2561-EP2280006A1', '2561-EP2280010A2', '2561-EP2280012A2', '2561-EP2281563A1', '2561-EP2281813A1', '2561-EP2281815A1', '2561-EP2281817A1', '2561-EP2281818A1', '2561-EP2281819A1', '2561-EP2281823A2', '2561-EP2284150A2', '2561-EP2284151A2', '2561-EP2284152A2', '2561-EP2284153A2', '2561-EP2284155A2', '2561-EP2284156A2', '2561-EP2284159A1', '2561-EP2284160A1', '2561-EP2284164A2', '2561-EP2284169A1', '2561-EP2284170A1', '2561-EP2284171A1', '2561-EP2284174A1', '2561-EP2284178A2', '2561-EP2284179A2', '2561-EP2284920A1', '2561-EP2286811A1', '2561-EP2287140A2', '2561-EP2287147A2', '2561-EP2287148A2', '2561-EP2287150A2', '2561-EP2287152A2', '2561-EP2287155A1', '2561-EP2287157A1', '2561-EP2287160A1', '2561-EP2287161A1', '2561-EP2287162A1', '2561-EP2287167A1', '2561-EP2289509A2', '2561-EP2289510A1', '2561-EP2289868A1', '2561-EP2289871A1', '2561-EP2289887A2', '2561-EP2289888A2', '2561-EP2289890A1', '2561-EP2289893A1', '2561-EP2289894A2', '2561-EP2289897A1', '2561-EP2289965A1', '2561-EP2292088A1', '2561-EP2292228A1', '2561-EP2292589A1', '2561-EP2292590A2', '2561-EP2292592A1', '2561-EP2292593A2', '2561-EP2292595A1', '2561-EP2292597A1', '2561-EP2292609A1', '2561-EP2292610A1', '2561-EP2292612A2', '2561-EP2292615A1', '2561-EP2292617A1', '2561-EP2292619A1', '2561-EP2292621A1', '2561-EP2292622A1', '2561-EP2292628A2', '2561-EP2295401A2', '2561-EP2295402A2', '2561-EP2295406A1', '2561-EP2295407A1', '2561-EP2295408A1', '2561-EP2295410A1', '2561-EP2295411A1', '2561-EP2295412A1', '2561-EP2295413A1', '2561-EP2295414A1', '2561-EP2295415A1', '2561-EP2295416A2', '2561-EP2295417A1', '2561-EP2295418A1', '2561-EP2295419A2', '2561-EP2295426A1', '2561-EP2295427A1', '2561-EP2295429A1', '2561-EP2295433A2', '2561-EP2295437A1', '2561-EP2295441A2', '2561-EP2298312A1', '2561-EP2298729A1', '2561-EP2298731A1', '2561-EP2298732A1', '2561-EP2298734A2', '2561-EP2298735A1', '2561-EP2298736A1', '2561-EP2298743A1', '2561-EP2298744A2', '2561-EP2298746A1', '2561-EP2298747A1', '2561-EP2298748A2', '2561-EP2298757A2', '2561-EP2298758A1', '2561-EP2298759A1', '2561-EP2298760A1', '2561-EP2298763A1', '2561-EP2298766A1', '2561-EP2298767A1', '2561-EP2298768A1', '2561-EP2298772A1', '2561-EP2298775A1', '2561-EP2298776A1', '2561-EP2298778A1', '2561-EP2298779A1', '2561-EP2299785A1', '2561-EP2301534A1', '2561-EP2301536A1', '2561-EP2301538A1', '2561-EP2301911A1', '2561-EP2301913A1', '2561-EP2301914A1', '2561-EP2301918A1', '2561-EP2301922A1', '2561-EP2301923A1', '2561-EP2301928A1', '2561-EP2301929A1', '2561-EP2301931A1', '2561-EP2301933A1', '2561-EP2301934A1', '2561-EP2301935A1', '2561-EP2301936A1', '2561-EP2301937A1', '2561-EP2301939A1', '2561-EP2301940A1', '2561-EP2305219A1', '2561-EP2305250A1', '2561-EP2305633A1', '2561-EP2305637A2', '2561-EP2305640A2', '2561-EP2305643A1', '2561-EP2305644A1', '2561-EP2305646A1', '2561-EP2305648A1', '2561-EP2305649A1', '2561-EP2305650A1', '2561-EP2305651A1', '2561-EP2305652A2', '2561-EP2305657A2', '2561-EP2305659A1', '2561-EP2305660A1', '2561-EP2305664A1', '2561-EP2305666A1', '2561-EP2305668A1', '2561-EP2305671A1', '2561-EP2305672A1', '2561-EP2305674A1', '2561-EP2305677A1', '2561-EP2305681A1', '2561-EP2305685A1', '2561-EP2305686A1', '2561-EP2305687A1', '2561-EP2306788A1', '2561-EP2306789A1', '2561-EP2308479A2', '2561-EP2308510A1', '2561-EP2308562A2', '2561-EP2308812A2', '2561-EP2308831A1', '2561-EP2308832A1', '2561-EP2308833A2', '2561-EP2308838A1', '2561-EP2308839A1', '2561-EP2308840A1', '2561-EP2308844A2', '2561-EP2308845A2', '2561-EP2308846A2', '2561-EP2308848A1', '2561-EP2308851A1', '2561-EP2308854A1', '2561-EP2308855A1', '2561-EP2308857A1', '2561-EP2308858A1', '2561-EP2308861A1', '2561-EP2308863A1', '2561-EP2308867A2', '2561-EP2308869A1', '2561-EP2308870A2', '2561-EP2308872A1', '2561-EP2308873A1', '2561-EP2308874A1', '2561-EP2308875A1', '2561-EP2308877A1', '2561-EP2308880A1', '2561-EP2308926A1', '2561-EP2311451A1', '2561-EP2311455A1', '2561-EP2311464A1', '2561-EP2311796A1', '2561-EP2311797A1', '2561-EP2311798A1', '2561-EP2311799A1', '2561-EP2311801A1', '2561-EP2311802A1', '2561-EP2311803A1', '2561-EP2311808A1', '2561-EP2311810A1', '2561-EP2311811A1', '2561-EP2311814A1', '2561-EP2311816A1', '2561-EP2311817A1', '2561-EP2311818A1', '2561-EP2311822A1', '2561-EP2311824A1', '2561-EP2311825A1', '2561-EP2311827A1', '2561-EP2311829A1', '2561-EP2311830A1', '2561-EP2311831A1', '2561-EP2311837A1', '2561-EP2311838A1', '2561-EP2311840A1', '2561-EP2311850A1', '2561-EP2314295A1', '2561-EP2314576A1', '2561-EP2314583A1', '2561-EP2314584A1', '2561-EP2314585A1', '2561-EP2314586A1', '2561-EP2314587A1', '2561-EP2314588A1', '2561-EP2314590A1', '2561-EP2316450A1', '2561-EP2316457A1', '2561-EP2316458A1', '2561-EP2316459A1', '2561-EP2316824A1', '2561-EP2316825A1', '2561-EP2316826A1', '2561-EP2316827A1', '2561-EP2316828A1', '2561-EP2316829A1', '2561-EP2316831A1', '2561-EP2316836A1', '2561-EP2371802A1', '2561-EP2371811A2', '2561-EP2371813A1', '2561-EP2374454A1', '2561-EP2374790A1', '2561-EP2380874A2', '6634-EP2269977A2', '6634-EP2270006A1', '6634-EP2284158A1', '6634-EP2305808A1', '36779-EP2277866A1', '36779-EP2292589A1', '36779-EP2292628A2', '36779-EP2295424A1', '36779-EP2295437A1', '36779-EP2298775A1', '36779-EP2311801A1', '36779-EP2311802A1', '36779-EP2311803A1', '107690-EP2270003A1', '107690-EP2298746A1', 'Q412033', 'Acetonitrile with 0.1% Trifluoroacetic Acid (v/v)', 'Q-201877', 'Trifluoroacetic acid, SAJ special grade, >=99.0%', 'Trifluoroacetic acid, Vetec(TM) reagent grade, 99%', 'Acetonitrile with 0.05% Trifluoroacetic Acid (v/v)', 'Trifluoroacetic acid, >=99.995% Trace metals grade', 'Trifluoroacetic acid, UV HPLC spectroscopic, 99.8%', 'F2190-0649', 'Trifluoroacetic acid, anhydrous, ZerO2(TM), >=99.0%', 'Z1258948176', 'Trifluoroacetic acid, puriss. p.a., for HPLC, >=99.0% (GC)', 'UNII-D8690V3244 component DTQVDTLACAAQTR-UHFFFAOYSA-N', 'Trifluoroacetic acid, for protein sequence analysis, >=99.5% (T)', 'Bruker standard solvent, for MALDI MS, 50% ACN + 47.5% H2O + 2.5% TFA', 'Trifluoroacetic acid solution, BioReagent, suitable for protein sequencing, ~25% in H2O', 'Trifluoroacetic acid, >=99%, purified by redistillation, for protein sequencing']"
216;urea;-1;CH4N2O;60.056;C(=O)(N)N;1176;357.2;;-72.7;;;;-13.3;-11.1;-12.7;;27;;;"['urea', 'carbamide', '57-13-6', 'Carbonyldiamide', 'Isourea', 'Ureophil', 'Carbonyldiamine', 'Ureaphil', 'Carbamimidic acid', 'Pseudourea', 'Urevert', 'Alphadrate', 'Aquadrate', 'Calmurid', 'Carbaderm', 'Keratinamin', 'Carbonyl diamide', 'Pastaron', 'Urepearl', 'Carbamide resin', 'Ultra Mide', 'Varioform ii', 'Aqua Care', 'Prespersion, 75 urea', 'B-I-K', 'basodexan', 'carmol', 'Harnstoff', 'Mocovina', 'Nutraplus', 'Urea solution', 'Supercel 3000', 'Aqua Care HP', 'Ureacin-20', 'Ureacin-10 lotion', 'Ureacin-40 Creme', 'Onychomal', 'Panafil', 'Polyurea', 'Hyanit', 'Caswell No. 902', 'Carbonyl Diamine', 'NCI-C02119', 'CCRIS 989', 'aminoketone', 'Aquacare', 'HSDB 163', 'Ureum', 'Carbamimic acid', 'Bubber shet', 'Elaqua xx', 'Keratinamin Kowa', 'NSC 34375', 'Benural 70', 'Urea ammonium nitrate solution', 'EPA Pesticide Chemical Code 085702', 'UNII-8W8T17847W', 'UR', 'AI3-01202', 'Carbamide;Carbonyldiamide', 'MFCD00008022', 'E927b', '(NH2)2CO', 'Helicosol', 'CHEBI:16199', 'NSC-34375', '8W8T17847W', '4744-36-9', 'NCGC00090892-01', 'DSSTox_CID_1426', 'DSSTox_RID_76155', 'Mocovina [Czech]', 'DSSTox_GSID_21426', '37955-36-5', 'URE', 'Harnstoff [German]', 'Antisepsis bolus', 'Sterile Urea', 'CAS-57-13-6', 'Urea [USP:JAN]', 'UREA, ACS', 'EINECS 200-315-5', 'uree', 'Isoharnstoff', 'Cerovel', 'Karbamid', 'Urepeal', 'Uroderm', 'amino ketone', 'amino-ketone', 'Urea perhydrate', 'Pastaron soft', 'Urea, ultrapure', 'E-Cardamoni', 'Aquacare HP', 'Urepeal L', 'Urea, homopolymer', 'beta-I-k', 'Pastaron 10', 'Pastaron 20', 'Pastaron (TN)', 'Pastaron 20 soft', 'carbonamidimidic acid', 'Carmol 40', 'Cerovel (Salt/Mix)', 'Panafil (Salt/Mix)', 'Rubinol ST 010', 'Urea, p.a.', 'Optigen 1200', 'Urea,(S)', 'Spectrum_000672', 'WLN: ZVZ', 'Carbamimidic acid (VAN)', 'Spectrum2_001192', 'Spectrum3_001791', 'Spectrum4_001168', 'Spectrum5_001862', 'Urea (JP17/USP)', 'Urea, analytical standard', 'Urea, for electrophoresis', 'Urea (8CI,9CI)', 'Eucerin 10% Urea Lotion', 'CHEMBL985', 'EC 200-315-5', 'H2N-CO-NH2', 'H2NC(O)NH2', 'Urea A.C.S. reagent grade', 'H2N-C(OH)=NH', 'BSPBio_003341', 'KBioGR_001775', 'KBioSS_001152', 'Urea, puriss., 99.5%', 'MLS001076688', 'DivK1c_000086', 'H2N-C(=NH)-OH', 'HO-C(=NH)-NH2', 'INS NO.927A', 'SPECTRUM1500604', 'Urea, AR, >=99%', 'Urea, LR, >=99%', 'SPBio_001263', 'GTPL4539', 'INS-927A', 'DTXSID4021426', 'Urea, >=99.0%', 'Urea, Molecular Biology Reagent', 'BDBM24961', 'CHEBI:48376', 'HMS500E08', 'KBio1_000086', 'KBio2_001152', 'KBio2_003720', 'KBio2_006288', 'KBio3_002843', 'Urea 100 microg/mL in Methanol', 'NINDS_000086', 'HMS1921I17', 'HMS2092C08', 'HMS2232P21', 'Pharmakon1600-01500604', 'component of Artra Ashy Skin Cream', 'AMY37159', 'BCP30439', 'CS-B1800', 'HY-Y0271', 'NSC34375', 'STR00449', 'Urea, tested according to Ph.Eur.', 'ZINC8214514', 'Tox21_111036', 'Tox21_202158', 'Tox21_300035', 'c0165', 'CCG-40265', 'E-927A', 'NSC757375', 's3687', 'STL194286', 'Urea, ReagentPlus(R), >=99.5%', 'AKOS009031424', 'Urea, NIST(R) SRM(R) 2141', 'Urea, SAJ first grade, >=98.0%', 'DB03904', 'MCULE-8513891094', 'NSC-757375', 'Urea, JIS special grade, >=99.0%', 'Urea, meets USP testing specifications', 'Urea, Vetec(TM) reagent grade, 99%', 'IDI1_000086', 'Urea solution, 40 % (w/v) in H2O', 'Basodexan pound>>Carmol pound>>Carbamide', 'NCGC00090892-02', 'NCGC00090892-03', 'NCGC00090892-04', 'NCGC00090892-05', 'NCGC00090892-06', 'NCGC00254181-01', 'NCGC00259707-01', 'Urea solution, BioUltra, ~8 M in H2O', 'SMR000499585', 'Urea, ACS reagent, 99.0-100.5%', '4,4-(3-Oxapentanediyldioxy)dibenzaldehyde', 'SBI-0051552.P002', 'Urea, BioReagent, suitable for cell culture', 'B7781', 'FT-0645129', 'FT-0675737', 'FT-0675738', 'U0073', 'U0077', 'Urea, ReagentPlus(R), >=99.5%, pellets', 'Urea solution, for microbiology, 40% in H2O', 'C00086', 'component of Artra Ashy Skin Cream (Salt/Mix)', 'D00023', 'D70446', 'M02656', 'Q48318', 'Urea, p.a., ACS reagent, 99.0-100.5%', 'AB00052123_05', 'SR-01000762961', 'Urea, NIST(R) SRM(R) 912a, clinical standard', 'SR-01000762961-2', 'Urea, British Pharmacopoeia (BP) Reference Standard', 'Urea, European Pharmacopoeia (EP) Reference Standard', 'F0001-1490', 'Urea, BioUltra, for molecular biology, >=99.5% (T)', 'Urea, BioXtra, pH 7.5-9.5 (20 C, 5 M in H2O)', 'Urea, NIST SRM 2152, combustion calorimetric standard', 'Z230747540', 'Urea, United States Pharmacopeia (USP) Reference Standard', '6E4EB293-4363-4D38-BF3B-1397372C31E5', 'Urea, 8 M (after reconstitution with 16 mL high purity water)', 'Urea, puriss. p.a., ACS reagent, reag. Ph. Eur., >=99.5%', 'Urea, Pharmaceutical Secondary Standard; Certified Reference Material', 'Urea, powder, BioReagent, for molecular biology, suitable for cell culture', 'Urea, puriss., meets analytical specification of Ph. Eur., BP, USP, 99.0-100.5%, 99.0-101.0% (calc. on dry substance)']"
217;3-oxo-3-phenylpropanenitrile;-1;C9H7NO;145.16;C1=CC=C(C=C1)C(=O)CC#N;64799;328.1;;-65.3;;;;-12.2;-11.9;-11.0;;10.2;;;"['Benzoylacetonitrile', '614-16-4', '3-Oxo-3-phenylpropanenitrile', '2-Cyanoacetophenone', 'Phenacyl cyanide', '3-Oxo-3-phenyl-propionitrile', 'Cyanomethyl phenyl ketone', 'Benzoyl acetonitrile', 'Acetonitrile, benzoyl-', 'Cyanoacetophenone', '3-Phenyl-3-ketopropionitrile', 'Benzenepropanenitrile, .beta.-oxo-', 'Benzenepropanenitrile, beta-oxo-', '2-Cyanoacetyl phenone', 'alpha-Cyanoacetophenone', 'omega-Cyanoacetophenone', 'Acetophenone, 2-cyano-', '3-Oxo-3-phenylpropionitrile', '3-oxo-3-phenyl-propanenitrile', 'beta-Oxohydrocinnamonitrile', 'MFCD00001942', '2-CAYNOACETOPHENONE', 'UNII-AFI9JB57H3', 'beta-oxobenzenepropanenitrile', 'AFI9JB57H3', 'CHEBI:51855', 'Hydrocinnamonitrile, beta-oxo-', 'NSC 4713', 'EINECS 210-369-1', 'ACMC-209msg', 'Enamine_005459', 'AI3-04364', '.alpha.-Cyanoacetophenone', '.omega.-Cyanoacetophenone', 'ss--Oxohydrocinnamonitrile', 'Benzoylacetonitrile, 99%', '3-O-3-phenylpropanenitrile', '3-Oxo-3-phenylpropionitril', 'Benzenepropanenitrile, b-oxo-', 'SCHEMBL136826', 'Acetonitrile, benzoyl- (8CI)', 'AMBZ0088', 'I(2)-Oxobenzene-propanenitrile', 'beta-oxo-2-benzenepropanenitrile', 'CHEMBL3251047', 'DTXSID7060629', 'ZINC74119', 'ZJRCIQAMTAINCB-UHFFFAOYSA-', 'Hydrocinnamonitrile, .beta.-oxo-', 'NSC4713', 'QCR-240', 'HMS1409I03', 'BCP31453', 'NSC-4713', 'BBL004559', 'CL8636', 'STK331099', 'AKOS000206307', 'CS-W004658', 'MCULE-2784311288', 'SB40622', '3-oxidanylidene-3-phenyl-propanenitrile', 'AC-20652', 'Q297', 'SY011838', 'TS-01896', 'CL-225385', 'DB-000267', 'AM20060386', 'B0098', 'C3314', 'FT-0612106', 'EN300-17202', '48114-EP2311846A1', 'A833208', 'AC-907/25014239', 'J-513011', 'Q-101252', 'Q27122832', 'Z56899088', 'F0001-1618', '2-Cyanoacetyl phenone;3-Phenyl-3-ketopropionitrile;3-Oxo-3-phenylpropanenitrile;Phenacyl cyanide']"
218;3-methoxybenzoic acid;-1;C8H8O3;152.15;COC1=CC=CC(=C1)C(=O)O;11461;332.9;;;;-71.0;;-13.4;-11.5;-11.8;;;;9.3;['3-METHOXYBENZOIC ACID', '586-38-9', 'm-Anisic acid', 'm-Methoxybenzoic acid', '3-Anisic acid', 'Benzoic acid, 3-methoxy-', 'Meta-Anisic Acid', '3-Methoxy-benzoic acid', 'UNII-E2I36FH6QZ', 'NSC 9264', 'MFCD00002499', 'NSC 27014', 'm-Methylsalicylic acid', '3-methoxy benzoic acid', 'E2I36FH6QZ', 'CHEMBL22425', 'BENZOIC ACID,3-METHOXY', 'CHEBI:88458', 'FEMA 3944', 'WLN: QVR CO1', 'm-methoxy benzoic acid', 'Q63395840', 'EINECS 209-574-9', 'BRN 0508838', 'AI3-24163', 'OVM', '3methoxybenzoic acid', '5-methoxybenzoic acid', '3-methoxylbenzoic acid', 'm-Anisic acid, 8CI', '5-methoxy-benzoic acid', 'meta-methoxybenzoic acid', 'm-Anisic acid, >=98%', 'SCHEMBL63427', 'AURORA 4252', 'ACMC-209m61', 'RARECHEM AL BO 0041', 'DTXSID2060410', 'TIMTEC-BB SBB015065', 'NSC9264', 'ZINC120430', 'CS-D1416', 'HY-Y0760', 'NSC-9264', 'NSC27014', 'AKOS BBS-00003736', 'AB2884', 'AKOS A1231-3098', 'BDBM50405321', 'LABOTEST-BB LT00786619', 'LABOTEST-BB LT03330801', 'NSC-27014', 's6025', 'STK498490', 'AKOS000119695', 'AM87081', 'AS00759', 'BS-3836', 'LS11528', 'MCULE-2205929978', 'OTAVA-BB 0109160003', 'AC-10896', 'SY002325', 'FT-0615987', 'FT-0615988', '3-Methoxybenzoic acid, ReagentPlus(R), 99%', '31541-EP2308858A1', '31541-EP2311816A1', '31541-EP2311817A1', 'AE-562/40299919', 'W-105374', '3-Methoxybenzoic acid, Vetec(TM) reagent grade, 98%', 'Z57127526', 'F2191-0079']